test                                    
   1.00000000000000     
     1.950000    1.950000    0.000000
     0.000000    1.950000    1.950000
     1.950000    0.000000    1.950000
   Si
     1
Direct
  0.000000  0.000000  0.000000
 
   28   28   28
 -.25718555647E+01 -.21573220449E+01 -.10054718342E+01 0.63378682542E+00 0.24208462215E+01
 0.40171155912E+01 0.51699576787E+01 0.57662556016E+01 0.58411039487E+01 0.55445306007E+01
 0.50824444010E+01 0.46379417477E+01 0.42869112821E+01 0.40637866423E+01 0.39874390908E+01
 0.40637866423E+01 0.42869112821E+01 0.46379417477E+01 0.50824444010E+01 0.55445306007E+01
 0.58411039487E+01 0.57662556016E+01 0.51699576787E+01 0.40171155912E+01 0.24208462215E+01
 0.63378682542E+00 -.10054718342E+01 -.21573220449E+01 -.21573220449E+01 -.13745657984E+01
 0.17683619009E-01 0.17208575485E+01 0.33924433220E+01 0.47356467548E+01 0.55696960863E+01
 0.58606709628E+01 0.57076945732E+01 0.52947580354E+01 0.48255571718E+01 0.44242529665E+01
 0.41356470332E+01 0.39854320293E+01 0.39854290330E+01 0.41356393414E+01 0.44242433590E+01
 0.48255491134E+01 0.52947534800E+01 0.57076935636E+01 0.58606708639E+01 0.55696934954E+01
 0.47356384052E+01 0.33924282919E+01 0.17208380345E+01 0.17663501893E-01 -.13745805082E+01
 -.21573273783E+01 -.10054718342E+01 0.17683619009E-01 0.14661087190E+01 0.30302208629E+01
 0.44037943181E+01 0.53621403227E+01 0.58105583285E+01 0.57908251781E+01 0.54488049494E+01
 0.49785048825E+01 0.45406283773E+01 0.41972695272E+01 0.39799276940E+01 0.39057001398E+01
 0.39799157337E+01 0.41972501405E+01 0.45406085407E+01 0.49784910949E+01 0.54488001316E+01
 0.57908275571E+01 0.58105620751E+01 0.53621387183E+01 0.44037823074E+01 0.30301981623E+01
 0.14660801254E+01 0.17657080642E-01 -.10054877676E+01 -.13745805082E+01 0.63378682542E+00
 0.17208575485E+01 0.30302208629E+01 0.42799952383E+01 0.52315877268E+01 0.57483699873E+01
 0.58195172162E+01 0.55451925438E+01 0.50925823257E+01 0.46319645743E+01 0.42465909236E+01
 0.39722809681E+01 0.38303154378E+01 0.38303066695E+01 0.39722578558E+01 0.42465619408E+01
 0.46319397182E+01 0.50925693249E+01 0.55451934925E+01 0.58195284636E+01 0.57483834205E+01
 0.52315950017E+01 0.42799912506E+01 0.30302060509E+01 0.17208377215E+01 0.63377004470E+00
 0.17657080642E-01 0.17663501893E-01 0.24208462215E+01 0.33924433220E+01 0.44037943181E+01
 0.52315877268E+01 0.57215595554E+01 0.58239642856E+01 0.55948395617E+01 0.51664057330E+01
 0.46967796410E+01 0.42829921976E+01 0.39642129718E+01 0.37645730586E+01 0.36967368425E+01
 0.37645576159E+01 0.39641875494E+01 0.42829657392E+01 0.46967611710E+01 0.51664011921E+01
 0.55948498443E+01 0.58239854911E+01 0.57215849806E+01 0.52316102943E+01 0.44038098297E+01
 0.33924507969E+01 0.24208478440E+01 0.17208377215E+01 0.14660801254E+01 0.17208380345E+01
 0.40171155912E+01 0.47356467548E+01 0.53621403227E+01 0.57483699873E+01 0.58239642856E+01
 0.56097126248E+01 0.52020001159E+01 0.47352141886E+01 0.43067474245E+01 0.39573156336E+01
 0.37125586675E+01 0.35870433670E+01 0.35870403593E+01 0.37125507251E+01 0.39573050591E+01
 0.43067379782E+01 0.47352096838E+01 0.52020041443E+01 0.56097272057E+01 0.58239896898E+01
 0.57484044583E+01 0.53621796310E+01 0.47356860330E+01 0.40171490984E+01 0.33924507969E+01
 0.30302060509E+01 0.30301981623E+01 0.33924282919E+01 0.51699576787E+01 0.55696960863E+01
 0.58105583285E+01 0.58195172162E+01 0.55948395617E+01 0.52020001159E+01 0.47479187600E+01
 0.43184241649E+01 0.39527453150E+01 0.36768570137E+01 0.35063334166E+01 0.34487703319E+01
 0.35063424160E+01 0.36768713756E+01 0.39527596068E+01 0.43184341285E+01 0.47479237534E+01
 0.52020039182E+01 0.55948492863E+01 0.58195392751E+01 0.58105966141E+01 0.55697473366E+01
 0.51700132866E+01 0.47356860330E+01 0.44038098297E+01 0.42799912506E+01 0.44037823074E+01
 0.47356384052E+01 0.57662556016E+01 0.58606709628E+01 0.57908251781E+01 0.55451925438E+01
 0.51664057330E+01 0.47352141886E+01 0.43184241649E+01 0.39511541398E+01 0.36587680578E+01
 0.34572524573E+01 0.33548943256E+01 0.33549050168E+01 0.34572801859E+01 0.36588027660E+01
 0.39511836687E+01 0.43184405659E+01 0.47352166376E+01 0.51664012135E+01 0.55451930165E+01
 0.57908408020E+01 0.58607066257E+01 0.57663067599E+01 0.55697473366E+01 0.53621796310E+01
 0.52316102943E+01 0.52315950017E+01 0.53621387183E+01 0.55696934954E+01 0.58411039487E+01
 0.57076945732E+01 0.54488049494E+01 0.50925823257E+01 0.46967796410E+01 0.43067474245E+01
 0.39527453150E+01 0.36587680578E+01 0.34408170785E+01 0.33076331558E+01 0.32629347203E+01
 0.33076533085E+01 0.34408499955E+01 0.36588019114E+01 0.39527692701E+01 0.43067556057E+01
 0.46967746032E+01 0.50925716886E+01 0.54488007005E+01 0.57077042286E+01 0.58411293541E+01
 0.58607066257E+01 0.58105966141E+01 0.57484044583E+01 0.57215849806E+01 0.57483834205E+01
 0.58105620751E+01 0.58606708639E+01 0.55445306007E+01 0.52947580354E+01 0.49785048825E+01
 0.46319645743E+01 0.42829921976E+01 0.39573156336E+01 0.36768570137E+01 0.34572524573E+01
 0.33076331558E+01 0.32321582248E+01 0.32321626701E+01 0.33076446309E+01 0.34572666645E+01
 0.36768685047E+01 0.39573208937E+01 0.42829898635E+01 0.46319579036E+01 0.49784977741E+01
 0.52947552236E+01 0.55445355399E+01 0.57077042286E+01 0.57908408020E+01 0.58195392751E+01
 0.58239896898E+01 0.58239854911E+01 0.58195284636E+01 0.57908275571E+01 0.57076935636E+01
 0.50824444010E+01 0.48255571718E+01 0.45406283773E+01 0.42465909236E+01 0.39642129718E+01
 0.37125586675E+01 0.35063334166E+01 0.33548943256E+01 0.32629347203E+01 0.32321626701E+01
 0.32629273648E+01 0.33548815793E+01 0.35063187691E+01 0.37125454717E+01 0.39642041572E+01
 0.42465869769E+01 0.45406286659E+01 0.48255603228E+01 0.50824471116E+01 0.52947552236E+01
 0.54488007005E+01 0.55451930165E+01 0.55948492863E+01 0.56097272057E+01 0.55948498443E+01
 0.55451934925E+01 0.54488001316E+01 0.52947534800E+01 0.46379417477E+01 0.44242529665E+01
 0.41972695272E+01 0.39722809681E+01 0.37645730586E+01 0.35870433670E+01 0.34487703319E+01
 0.33549050168E+01 0.33076533085E+01 0.33076446309E+01 0.33548815793E+01 0.34487387922E+01
 0.35870122913E+01 0.37645497633E+01 0.39722698707E+01 0.41972706016E+01 0.44242620991E+01
 0.46379543543E+01 0.48255603228E+01 0.49784977741E+01 0.50925716886E+01 0.51664012135E+01
 0.52020039182E+01 0.52020041443E+01 0.51664011921E+01 0.50925693249E+01 0.49784910949E+01
 0.48255491134E+01 0.42869112821E+01 0.41356470332E+01 0.39799276940E+01 0.38303154378E+01
 0.36967368425E+01 0.35870403593E+01 0.35063424160E+01 0.34572801859E+01 0.34408499955E+01
 0.34572666645E+01 0.35063187691E+01 0.35870122913E+01 0.36967111622E+01 0.38302974033E+01
 0.39799205728E+01 0.41356514375E+01 0.42869247459E+01 0.44242620991E+01 0.45406286659E+01
 0.46319579036E+01 0.46967746032E+01 0.47352166376E+01 0.47479237534E+01 0.47352096838E+01
 0.46967611710E+01 0.46319397182E+01 0.45406085407E+01 0.44242433590E+01 0.40637866423E+01
 0.39854320293E+01 0.39057001398E+01 0.38303066695E+01 0.37645576159E+01 0.37125507251E+01
 0.36768713756E+01 0.36588027660E+01 0.36588019114E+01 0.36768685047E+01 0.37125454717E+01
 0.37645497633E+01 0.38302974033E+01 0.39056918368E+01 0.39854276916E+01 0.40637896939E+01
 0.41356514375E+01 0.41972706016E+01 0.42465869769E+01 0.42829898635E+01 0.43067556057E+01
 0.43184405659E+01 0.43184341285E+01 0.43067379782E+01 0.42829657392E+01 0.42465619408E+01
 0.41972501405E+01 0.41356393414E+01 0.39874390908E+01 0.39854290330E+01 0.39799157337E+01
 0.39722578558E+01 0.39641875494E+01 0.39573050591E+01 0.39527596068E+01 0.39511836687E+01
 0.39527692701E+01 0.39573208937E+01 0.39642041572E+01 0.39722698707E+01 0.39799205728E+01
 0.39854276916E+01 0.39874352747E+01 0.39854276916E+01 0.39799205728E+01 0.39722698707E+01
 0.39642041572E+01 0.39573208937E+01 0.39527692701E+01 0.39511836687E+01 0.39527596068E+01
 0.39573050591E+01 0.39641875494E+01 0.39722578558E+01 0.39799157337E+01 0.39854290330E+01
 0.40637866423E+01 0.41356393414E+01 0.41972501405E+01 0.42465619408E+01 0.42829657392E+01
 0.43067379782E+01 0.43184341285E+01 0.43184405659E+01 0.43067556057E+01 0.42829898635E+01
 0.42465869769E+01 0.41972706016E+01 0.41356514375E+01 0.40637896939E+01 0.39854276916E+01
 0.39056918368E+01 0.38302974033E+01 0.37645497633E+01 0.37125454717E+01 0.36768685047E+01
 0.36588019114E+01 0.36588027660E+01 0.36768713756E+01 0.37125507251E+01 0.37645576159E+01
 0.38303066695E+01 0.39057001398E+01 0.39854320293E+01 0.42869112821E+01 0.44242433590E+01
 0.45406085407E+01 0.46319397182E+01 0.46967611710E+01 0.47352096838E+01 0.47479237534E+01
 0.47352166376E+01 0.46967746032E+01 0.46319579036E+01 0.45406286659E+01 0.44242620991E+01
 0.42869247459E+01 0.41356514375E+01 0.39799205728E+01 0.38302974033E+01 0.36967111622E+01
 0.35870122913E+01 0.35063187691E+01 0.34572666645E+01 0.34408499955E+01 0.34572801859E+01
 0.35063424160E+01 0.35870403593E+01 0.36967368425E+01 0.38303154378E+01 0.39799276940E+01
 0.41356470332E+01 0.46379417477E+01 0.48255491134E+01 0.49784910949E+01 0.50925693249E+01
 0.51664011921E+01 0.52020041443E+01 0.52020039182E+01 0.51664012135E+01 0.50925716886E+01
 0.49784977741E+01 0.48255603228E+01 0.46379543543E+01 0.44242620991E+01 0.41972706016E+01
 0.39722698707E+01 0.37645497633E+01 0.35870122913E+01 0.34487387922E+01 0.33548815793E+01
 0.33076446309E+01 0.33076533085E+01 0.33549050168E+01 0.34487703319E+01 0.35870433670E+01
 0.37645730586E+01 0.39722809681E+01 0.41972695272E+01 0.44242529665E+01 0.50824444010E+01
 0.52947534800E+01 0.54488001316E+01 0.55451934925E+01 0.55948498443E+01 0.56097272057E+01
 0.55948492863E+01 0.55451930165E+01 0.54488007005E+01 0.52947552236E+01 0.50824471116E+01
 0.48255603228E+01 0.45406286659E+01 0.42465869769E+01 0.39642041572E+01 0.37125454717E+01
 0.35063187691E+01 0.33548815793E+01 0.32629273648E+01 0.32321626701E+01 0.32629347203E+01
 0.33548943256E+01 0.35063334166E+01 0.37125586675E+01 0.39642129718E+01 0.42465909236E+01
 0.45406283773E+01 0.48255571718E+01 0.55445306007E+01 0.57076935636E+01 0.57908275571E+01
 0.58195284636E+01 0.58239854911E+01 0.58239896898E+01 0.58195392751E+01 0.57908408020E+01
 0.57077042286E+01 0.55445355399E+01 0.52947552236E+01 0.49784977741E+01 0.46319579036E+01
 0.42829898635E+01 0.39573208937E+01 0.36768685047E+01 0.34572666645E+01 0.33076446309E+01
 0.32321626701E+01 0.32321582248E+01 0.33076331558E+01 0.34572524573E+01 0.36768570137E+01
 0.39573156336E+01 0.42829921976E+01 0.46319645743E+01 0.49785048825E+01 0.52947580354E+01
 0.58411039487E+01 0.58606708639E+01 0.58105620751E+01 0.57483834205E+01 0.57215849806E+01
 0.57484044583E+01 0.58105966141E+01 0.58607066257E+01 0.58411293541E+01 0.57077042286E+01
 0.54488007005E+01 0.50925716886E+01 0.46967746032E+01 0.43067556057E+01 0.39527692701E+01
 0.36588019114E+01 0.34408499955E+01 0.33076533085E+01 0.32629347203E+01 0.33076331558E+01
 0.34408170785E+01 0.36587680578E+01 0.39527453150E+01 0.43067474245E+01 0.46967796410E+01
 0.50925823257E+01 0.54488049494E+01 0.57076945732E+01 0.57662556016E+01 0.55696934954E+01
 0.53621387183E+01 0.52315950017E+01 0.52316102943E+01 0.53621796310E+01 0.55697473366E+01
 0.57663067599E+01 0.58607066257E+01 0.57908408020E+01 0.55451930165E+01 0.51664012135E+01
 0.47352166376E+01 0.43184405659E+01 0.39511836687E+01 0.36588027660E+01 0.34572801859E+01
 0.33549050168E+01 0.33548943256E+01 0.34572524573E+01 0.36587680578E+01 0.39511541398E+01
 0.43184241649E+01 0.47352141886E+01 0.51664057330E+01 0.55451925438E+01 0.57908251781E+01
 0.58606709628E+01 0.51699576787E+01 0.47356384052E+01 0.44037823074E+01 0.42799912506E+01
 0.44038098297E+01 0.47356860330E+01 0.51700132866E+01 0.55697473366E+01 0.58105966141E+01
 0.58195392751E+01 0.55948492863E+01 0.52020039182E+01 0.47479237534E+01 0.43184341285E+01
 0.39527596068E+01 0.36768713756E+01 0.35063424160E+01 0.34487703319E+01 0.35063334166E+01
 0.36768570137E+01 0.39527453150E+01 0.43184241649E+01 0.47479187600E+01 0.52020001159E+01
 0.55948395617E+01 0.58195172162E+01 0.58105583285E+01 0.55696960863E+01 0.40171155912E+01
 0.33924282919E+01 0.30301981623E+01 0.30302060509E+01 0.33924507969E+01 0.40171490984E+01
 0.47356860330E+01 0.53621796310E+01 0.57484044583E+01 0.58239896898E+01 0.56097272057E+01
 0.52020041443E+01 0.47352096838E+01 0.43067379782E+01 0.39573050591E+01 0.37125507251E+01
 0.35870403593E+01 0.35870433670E+01 0.37125586675E+01 0.39573156336E+01 0.43067474245E+01
 0.47352141886E+01 0.52020001159E+01 0.56097126248E+01 0.58239642856E+01 0.57483699873E+01
 0.53621403227E+01 0.47356467548E+01 0.24208462215E+01 0.17208380345E+01 0.14660801254E+01
 0.17208377215E+01 0.24208478440E+01 0.33924507969E+01 0.44038098297E+01 0.52316102943E+01
 0.57215849806E+01 0.58239854911E+01 0.55948498443E+01 0.51664011921E+01 0.46967611710E+01
 0.42829657392E+01 0.39641875494E+01 0.37645576159E+01 0.36967368425E+01 0.37645730586E+01
 0.39642129718E+01 0.42829921976E+01 0.46967796410E+01 0.51664057330E+01 0.55948395617E+01
 0.58239642856E+01 0.57215595554E+01 0.52315877268E+01 0.44037943181E+01 0.33924433220E+01
 0.63378682542E+00 0.17663501893E-01 0.17657080642E-01 0.63377004470E+00 0.17208377215E+01
 0.30302060509E+01 0.42799912506E+01 0.52315950017E+01 0.57483834205E+01 0.58195284636E+01
 0.55451934925E+01 0.50925693249E+01 0.46319397182E+01 0.42465619408E+01 0.39722578558E+01
 0.38303066695E+01 0.38303154378E+01 0.39722809681E+01 0.42465909236E+01 0.46319645743E+01
 0.50925823257E+01 0.55451925438E+01 0.58195172162E+01 0.57483699873E+01 0.52315877268E+01
 0.42799952383E+01 0.30302208629E+01 0.17208575485E+01 -.10054718342E+01 -.13745805082E+01
 -.10054877676E+01 0.17657080642E-01 0.14660801254E+01 0.30301981623E+01 0.44037823074E+01
 0.53621387183E+01 0.58105620751E+01 0.57908275571E+01 0.54488001316E+01 0.49784910949E+01
 0.45406085407E+01 0.41972501405E+01 0.39799157337E+01 0.39057001398E+01 0.39799276940E+01
 0.41972695272E+01 0.45406283773E+01 0.49785048825E+01 0.54488049494E+01 0.57908251781E+01
 0.58105583285E+01 0.53621403227E+01 0.44037943181E+01 0.30302208629E+01 0.14661087190E+01
 0.17683619009E-01 -.21573220449E+01 -.21573273783E+01 -.13745805082E+01 0.17663501893E-01
 0.17208380345E+01 0.33924282919E+01 0.47356384052E+01 0.55696934954E+01 0.58606708639E+01
 0.57076935636E+01 0.52947534800E+01 0.48255491134E+01 0.44242433590E+01 0.41356393414E+01
 0.39854290330E+01 0.39854320293E+01 0.41356470332E+01 0.44242529665E+01 0.48255571718E+01
 0.52947580354E+01 0.57076945732E+01 0.58606709628E+01 0.55696960863E+01 0.47356467548E+01
 0.33924433220E+01 0.17208575485E+01 0.17683619009E-01 -.13745657984E+01 -.21573220449E+01
 -.13745657984E+01 0.17683619009E-01 0.17208575485E+01 0.33924433220E+01 0.47356467548E+01
 0.55696960863E+01 0.58606709628E+01 0.57076945732E+01 0.52947580354E+01 0.48255571718E+01
 0.44242529665E+01 0.41356470332E+01 0.39854320293E+01 0.39854290330E+01 0.41356393414E+01
 0.44242433590E+01 0.48255491134E+01 0.52947534800E+01 0.57076935636E+01 0.58606708639E+01
 0.55696934954E+01 0.47356384052E+01 0.33924282919E+01 0.17208380345E+01 0.17663501893E-01
 -.13745805082E+01 -.21573273783E+01 -.13745657984E+01 -.30921488895E+00 0.12017019611E+01
 0.28386845888E+01 0.42848474051E+01 0.53063412402E+01 0.58024868457E+01 0.58129684009E+01
 0.54851236781E+01 0.50169603746E+01 0.45767461189E+01 0.42307649718E+01 0.40114710582E+01
 0.39365302866E+01 0.40114592448E+01 0.42307458627E+01 0.45767266345E+01 0.50169467606E+01
 0.54851183882E+01 0.58129694420E+01 0.58024878689E+01 0.53063353460E+01 0.42848294141E+01
 0.28386551502E+01 0.12016665778E+01 -.30924690355E+00 -.13745846543E+01 -.17585796659E+01
 0.17683619009E-01 0.12017019611E+01 0.26358384951E+01 0.40187247277E+01 0.50931762165E+01
 0.57086125091E+01 0.58470997592E+01 0.56087921756E+01 0.51665405147E+01 0.47021293859E+01
 0.43112116260E+01 0.40320593132E+01 0.38873317254E+01 0.38873221589E+01 0.40320341702E+01
 0.43111801103E+01 0.47021022897E+01 0.51665256975E+01 0.56087910892E+01 0.58471072096E+01
 0.57086188478E+01 0.50931723584E+01 0.40187058117E+01 0.26358067429E+01 0.12016664039E+01
 0.17655461595E-01 -.65146843199E+00 -.65145767535E+00 0.17208575485E+01 0.28386845888E+01
 0.40187247277E+01 0.50118536763E+01 0.56421226820E+01 0.58462534938E+01 0.56764382611E+01
 0.52697364910E+01 0.47967276465E+01 0.43743974725E+01 0.40472797618E+01 0.38417520219E+01
 0.37718051725E+01 0.38417307039E+01 0.40472447312E+01 0.43743608962E+01 0.47967012492E+01
 0.52697273344E+01 0.56764456779E+01 0.58462705540E+01 0.56421387992E+01 0.50118602591E+01
 0.40187179988E+01 0.28386674692E+01 0.17208383114E+01 0.92143432073E+00 0.63145959345E+00
 0.92144678273E+00 0.33924433220E+01 0.42848474051E+01 0.50931762165E+01 0.56421226820E+01
 0.58418644448E+01 0.57044728864E+01 0.53284042362E+01 0.48594448753E+01 0.44193621093E+01
 0.40577625180E+01 0.38032712176E+01 0.36724077945E+01 0.36723990738E+01 0.38032480223E+01
 0.40577324949E+01 0.44193350360E+01 0.48594289505E+01 0.53284038631E+01 0.57044870204E+01
 0.58418882135E+01 0.56421488363E+01 0.50931987345E+01 0.42848630287E+01 0.33924515070E+01
 0.26309342266E+01 0.21933372059E+01 0.21933364233E+01 0.26309308574E+01 0.47356467548E+01
 0.53063412402E+01 0.57086125091E+01 0.58462534938E+01 0.57044728864E+01 0.53472106847E+01
 0.48905593157E+01 0.44461176321E+01 0.40642583895E+01 0.37744171214E+01 0.35945884470E+01
 0.35337672264E+01 0.35945847543E+01 0.37744103364E+01 0.40642497431E+01 0.44461094988E+01
 0.48905545931E+01 0.53472130301E+01 0.57044847692E+01 0.58462765051E+01 0.57086452927E+01
 0.53063796923E+01 0.47356848306E+01 0.41496612144E+01 0.37132244676E+01 0.35521121442E+01
 0.37132073766E+01 0.41496305079E+01 0.55696960863E+01 0.58024868457E+01 0.58470997592E+01
 0.56764382611E+01 0.53284042362E+01 0.48905593157E+01 0.44549824931E+01 0.40673541253E+01
 0.37566680304E+01 0.35415714747E+01 0.34320244707E+01 0.34320307911E+01 0.35415875471E+01
 0.37566871944E+01 0.40673684580E+01 0.44549876143E+01 0.48905558682E+01 0.53283989350E+01
 0.56764401784E+01 0.58471164792E+01 0.58025211549E+01 0.55697426560E+01 0.52346608772E+01
 0.49150737014E+01 0.47218930575E+01 0.47218795282E+01 0.49150375587E+01 0.52346128537E+01
 0.58606709628E+01 0.58129684009E+01 0.56087921756E+01 0.52697364910E+01 0.48594448753E+01
 0.44461176321E+01 0.40673541253E+01 0.37506929990E+01 0.35148282268E+01 0.33702639575E+01
 0.33216736256E+01 0.33702847536E+01 0.35148615279E+01 0.37507261390E+01 0.40673751214E+01
 0.44461210347E+01 0.48594334494E+01 0.52697203967E+01 0.56087844448E+01 0.58129779132E+01
 0.58607000486E+01 0.57792045520E+01 0.56339134792E+01 0.55039148110E+01 0.54525441361E+01
 0.55038903897E+01 0.56338737569E+01 0.57791633343E+01 0.57076945732E+01 0.54851236781E+01
 0.51665405147E+01 0.47967276465E+01 0.44193621093E+01 0.40642583895E+01 0.37566680304E+01
 0.35148282268E+01 0.33496019132E+01 0.32661203060E+01 0.32661292661E+01 0.33496255458E+01
 0.35148569406E+01 0.37566911803E+01 0.40642675807E+01 0.44193556246E+01 0.47967105081E+01
 0.51665215513E+01 0.54851135079E+01 0.57076980356E+01 0.58207280813E+01 0.58441864896E+01
 0.58202281805E+01 0.57939526260E+01 0.57939449634E+01 0.58202085937E+01 0.58441634313E+01
 0.58207117070E+01 0.52947580354E+01 0.50169603746E+01 0.47021293859E+01 0.43743974725E+01
 0.40577625180E+01 0.37744171214E+01 0.35415714747E+01 0.33702639575E+01 0.32661203060E+01
 0.32312557375E+01 0.32661236443E+01 0.33702687227E+01 0.35415746631E+01 0.37744159089E+01
 0.40577559708E+01 0.43743860411E+01 0.47021168596E+01 0.50169492806E+01 0.52947515630E+01
 0.55078660391E+01 0.56455756396E+01 0.57182451420E+01 0.57478500254E+01 0.57549628232E+01
 0.57478465864E+01 0.57182399449E+01 0.56455718757E+01 0.55078662599E+01 0.48255571718E+01
 0.45767461189E+01 0.43112116260E+01 0.40472797618E+01 0.38032712176E+01 0.35945884470E+01
 0.34320244707E+01 0.33216736256E+01 0.32661292661E+01 0.32661236443E+01 0.33216580989E+01
 0.34320028653E+01 0.35945657801E+01 0.38032518897E+01 0.40472669364E+01 0.43112052470E+01
 0.45767450494E+01 0.48255592949E+01 0.50424564892E+01 0.52162963719E+01 0.53393138417E+01
 0.54137931888E+01 0.54478099880E+01 0.54478102280E+01 0.54137938320E+01 0.53393140357E+01
 0.52162955934E+01 0.50424546425E+01 0.44242529665E+01 0.42307649718E+01 0.40320593132E+01
 0.38417520219E+01 0.36724077945E+01 0.35337672264E+01 0.34320307911E+01 0.33702847536E+01
 0.33496255458E+01 0.33702687227E+01 0.34320028653E+01 0.35337342536E+01 0.36723774078E+01
 0.38417300333E+01 0.40320492008E+01 0.42307662475E+01 0.44242622804E+01 0.46001174743E+01
 0.47490024366E+01 0.48655365201E+01 0.49479061962E+01 0.49964981686E+01 0.50124518911E+01
 0.49964946323E+01 0.49478988243E+01 0.48655251702E+01 0.47489883571E+01 0.46001038430E+01
 0.41356470332E+01 0.40114710582E+01 0.38873317254E+01 0.37718051725E+01 0.36723990738E+01
 0.35945847543E+01 0.35415875471E+01 0.35148615279E+01 0.35148569406E+01 0.35415746631E+01
 0.35945657801E+01 0.36723774078E+01 0.37717851015E+01 0.38873169393E+01 0.40114648965E+01
 0.41356513983E+01 0.42516391317E+01 0.43528455953E+01 0.44350755244E+01 0.44964744704E+01
 0.45368589417E+01 0.45567940424E+01 0.45567882402E+01 0.45368426851E+01 0.44964514905E+01
 0.44350509171E+01 0.43528240696E+01 0.42516248647E+01 0.39854320293E+01 0.39365302866E+01
 0.38873221589E+01 0.38417307039E+01 0.38032480223E+01 0.37744103364E+01 0.37566871944E+01
 0.37507261390E+01 0.37566911803E+01 0.37744159089E+01 0.38032518897E+01 0.38417300333E+01
 0.38873169393E+01 0.39365229796E+01 0.39854270509E+01 0.40304369366E+01 0.40689601377E+01
 0.40997055779E+01 0.41225366475E+01 0.41380195595E+01 0.41469151849E+01 0.41498050281E+01
 0.41469016348E+01 0.41379966419E+01 0.41225109979E+01 0.40996841446E+01 0.40689478849E+01
 0.40304346767E+01 0.39854290330E+01 0.40114592448E+01 0.40320341702E+01 0.40472447312E+01
 0.40577324949E+01 0.40642497431E+01 0.40673684580E+01 0.40673751214E+01 0.40642675807E+01
 0.40577559708E+01 0.40472669364E+01 0.40320492008E+01 0.40114648965E+01 0.39854270509E+01
 0.39547933475E+01 0.39214852887E+01 0.38882189331E+01 0.38579413855E+01 0.38332302034E+01
 0.38159171826E+01 0.38070433009E+01 0.38070398874E+01 0.38159086112E+01 0.38332202599E+01
 0.38579344059E+01 0.38882175899E+01 0.39214889173E+01 0.39547986320E+01 0.41356393414E+01
 0.42307458627E+01 0.43111801103E+01 0.43743608962E+01 0.44193350360E+01 0.44461094988E+01
 0.44549876143E+01 0.44461210347E+01 0.44193556246E+01 0.43743860411E+01 0.43112052470E+01
 0.42307662475E+01 0.41356513983E+01 0.40304369366E+01 0.39214852887E+01 0.38161217220E+01
 0.37214530700E+01 0.36432828005E+01 0.35855338416E+01 0.35503274112E+01 0.35385267650E+01
 0.35503347906E+01 0.35855471630E+01 0.36432996769E+01 0.37214701360E+01 0.38161351761E+01
 0.39214921355E+01 0.40304346767E+01 0.44242433590E+01 0.45767266345E+01 0.47021022897E+01
 0.47967012492E+01 0.48594289505E+01 0.48905545931E+01 0.48905558682E+01 0.48594334494E+01
 0.47967105081E+01 0.47021168596E+01 0.45767450494E+01 0.44242622804E+01 0.42516391317E+01
 0.40689601377E+01 0.38882189331E+01 0.37214530700E+01 0.35788953224E+01 0.34678133789E+01
 0.33923768274E+01 0.33543986127E+01 0.33544077815E+01 0.33924015790E+01 0.34678467367E+01
 0.35789279869E+01 0.37214769589E+01 0.38882293308E+01 0.40689563103E+01 0.42516248647E+01
 0.48255491134E+01 0.50169467606E+01 0.51665256975E+01 0.52697273344E+01 0.53284038631E+01
 0.53472130301E+01 0.53283989350E+01 0.52697203967E+01 0.51665215513E+01 0.50169492806E+01
 0.48255592949E+01 0.46001174743E+01 0.43528455953E+01 0.40997055779E+01 0.38579413855E+01
 0.36432828005E+01 0.34678133789E+01 0.33391726959E+01 0.32611404753E+01 0.32350498787E+01
 0.32611571174E+01 0.33392005577E+01 0.34678435232E+01 0.36433063840E+01 0.38579526058E+01
 0.40997034456E+01 0.43528346593E+01 0.46001038430E+01 0.52947534800E+01 0.54851183882E+01
 0.56087910892E+01 0.56764456779E+01 0.57044870204E+01 0.57044847692E+01 0.56764401784E+01
 0.56087844448E+01 0.54851135079E+01 0.52947515630E+01 0.50424564892E+01 0.47490024366E+01
 0.44350755244E+01 0.41225366475E+01 0.38332302034E+01 0.35855338416E+01 0.33923768274E+01
 0.32611404753E+01 0.31950453376E+01 0.31950474520E+01 0.32611460399E+01 0.33923833729E+01
 0.35855389251E+01 0.38332317021E+01 0.41225343799E+01 0.44350710831E+01 0.47489974939E+01
 0.50424546425E+01 0.57076935636E+01 0.58129694420E+01 0.58471072096E+01 0.58462705540E+01
 0.58418882135E+01 0.58462765051E+01 0.58471164792E+01 0.58129779132E+01 0.57076980356E+01
 0.55078660391E+01 0.52162963719E+01 0.48655365201E+01 0.44964744704E+01 0.41380195595E+01
 0.38159171826E+01 0.35503274112E+01 0.33543986127E+01 0.32350498787E+01 0.31950474520E+01
 0.32350377778E+01 0.33543782477E+01 0.35503051094E+01 0.38158988547E+01 0.41380094065E+01
 0.44964724345E+01 0.48655397904E+01 0.52163007624E+01 0.55078662599E+01 0.58606708639E+01
 0.58024878689E+01 0.57086188478E+01 0.56421387992E+01 0.56421488363E+01 0.57086452927E+01
 0.58025211549E+01 0.58607000486E+01 0.58207280813E+01 0.56455756396E+01 0.53393138417E+01
 0.49479061962E+01 0.45368589417E+01 0.41469151849E+01 0.38070433009E+01 0.35385267650E+01
 0.33544077815E+01 0.32611571174E+01 0.32611460399E+01 0.33543782477E+01 0.35384889972E+01
 0.38070090679E+01 0.41468938902E+01 0.45368526516E+01 0.49479107939E+01 0.53393194462E+01
 0.56455726617E+01 0.58207117070E+01 0.55696934954E+01 0.53063353460E+01 0.50931723584E+01
 0.50118602591E+01 0.50931987345E+01 0.53063796923E+01 0.55697426560E+01 0.57792045520E+01
 0.58441864896E+01 0.57182451420E+01 0.54137931888E+01 0.49964981686E+01 0.45567940424E+01
 0.41498050281E+01 0.38070398874E+01 0.35503347906E+01 0.33924015790E+01 0.33392005577E+01
 0.33923833729E+01 0.35503051094E+01 0.38070090679E+01 0.41497826377E+01 0.45567840105E+01
 0.49964980314E+01 0.54137937459E+01 0.57182365874E+01 0.58441616521E+01 0.57791633343E+01
 0.47356384052E+01 0.42848294141E+01 0.40187058117E+01 0.40187179988E+01 0.42848630287E+01
 0.47356848306E+01 0.52346608772E+01 0.56339134792E+01 0.58202281805E+01 0.57478500254E+01
 0.54478099880E+01 0.50124518911E+01 0.45567882402E+01 0.41469016348E+01 0.38159086112E+01
 0.35855471630E+01 0.34678467367E+01 0.34678435232E+01 0.35855389251E+01 0.38158988547E+01
 0.41468938902E+01 0.45567840105E+01 0.50124494485E+01 0.54478042459E+01 0.57478355095E+01
 0.58202004354E+01 0.56338727076E+01 0.52346128537E+01 0.33924282919E+01 0.28386551502E+01
 0.26358067429E+01 0.28386674692E+01 0.33924515070E+01 0.41496612144E+01 0.49150737014E+01
 0.55039148110E+01 0.57939526260E+01 0.57549628232E+01 0.54478102280E+01 0.49964946323E+01
 0.45368426851E+01 0.41379966419E+01 0.38332202599E+01 0.36432996769E+01 0.35789279869E+01
 0.36433063840E+01 0.38332317021E+01 0.41380094065E+01 0.45368526516E+01 0.49964980314E+01
 0.54478042459E+01 0.57549467287E+01 0.57939272402E+01 0.55038834067E+01 0.49150403383E+01
 0.41496305079E+01 0.17208380345E+01 0.12016665778E+01 0.12016664039E+01 0.17208383114E+01
 0.26309342266E+01 0.37132244676E+01 0.47218930575E+01 0.54525441361E+01 0.57939449634E+01
 0.57478465864E+01 0.54137938320E+01 0.49478988243E+01 0.44964514905E+01 0.41225109979E+01
 0.38579344059E+01 0.37214701360E+01 0.37214769589E+01 0.38579526058E+01 0.41225343799E+01
 0.44964724345E+01 0.49479107939E+01 0.54137937459E+01 0.57478355095E+01 0.57939272402E+01
 0.54525255159E+01 0.47218781890E+01 0.37132155381E+01 0.26309308574E+01 0.17663501893E-01
 -.30924690355E+00 0.17655461595E-01 0.92143432073E+00 0.21933372059E+01 0.35521121442E+01
 0.47218795282E+01 0.55038903897E+01 0.58202085937E+01 0.57182399449E+01 0.53393140357E+01
 0.48655251702E+01 0.44350509171E+01 0.40996841446E+01 0.38882175899E+01 0.38161351761E+01
 0.38882293308E+01 0.40997034456E+01 0.44350710831E+01 0.48655397904E+01 0.53393194462E+01
 0.57182365874E+01 0.58202004354E+01 0.55038834067E+01 0.47218781890E+01 0.35521185372E+01
 0.21933490195E+01 0.92144678273E+00 -.13745805082E+01 -.13745846543E+01 -.65146843199E+00
 0.63145959345E+00 0.21933364233E+01 0.37132073766E+01 0.49150375587E+01 0.56338737569E+01
 0.58441634313E+01 0.56455718757E+01 0.52162955934E+01 0.47489883571E+01 0.43528240696E+01
 0.40689478849E+01 0.39214889173E+01 0.39214921355E+01 0.40689563103E+01 0.43528346593E+01
 0.47489974939E+01 0.52163007624E+01 0.56455726617E+01 0.58441616521E+01 0.56338727076E+01
 0.49150403383E+01 0.37132155381E+01 0.21933490195E+01 0.63147331701E+00 -.65145767535E+00
 -.21573273783E+01 -.17585796659E+01 -.65145767535E+00 0.92144678273E+00 0.26309308574E+01
 0.41496305079E+01 0.52346128537E+01 0.57791633343E+01 0.58207117070E+01 0.55078662599E+01
 0.50424546425E+01 0.46001038430E+01 0.42516248647E+01 0.40304346767E+01 0.39547986320E+01
 0.40304346767E+01 0.42516248647E+01 0.46001038430E+01 0.50424546425E+01 0.55078662599E+01
 0.58207117070E+01 0.57791633343E+01 0.52346128537E+01 0.41496305079E+01 0.26309308574E+01
 0.92144678273E+00 -.65145767535E+00 -.17585796659E+01 -.10054718342E+01 0.17683619009E-01
 0.14661087190E+01 0.30302208629E+01 0.44037943181E+01 0.53621403227E+01 0.58105583285E+01
 0.57908251781E+01 0.54488049494E+01 0.49785048825E+01 0.45406283773E+01 0.41972695272E+01
 0.39799276940E+01 0.39057001398E+01 0.39799157337E+01 0.41972501405E+01 0.45406085407E+01
 0.49784910949E+01 0.54488001316E+01 0.57908275571E+01 0.58105620751E+01 0.53621387183E+01
 0.44037823074E+01 0.30301981623E+01 0.14660801254E+01 0.17657080642E-01 -.10054877676E+01
 -.13745805082E+01 0.17683619009E-01 0.12017019611E+01 0.26358384951E+01 0.40187247277E+01
 0.50931762165E+01 0.57086125091E+01 0.58470997592E+01 0.56087921756E+01 0.51665405147E+01
 0.47021293859E+01 0.43112116260E+01 0.40320593132E+01 0.38873317254E+01 0.38873221589E+01
 0.40320341702E+01 0.43111801103E+01 0.47021022897E+01 0.51665256975E+01 0.56087910892E+01
 0.58471072096E+01 0.57086188478E+01 0.50931723584E+01 0.40187058117E+01 0.26358067429E+01
 0.12016664039E+01 0.17655461595E-01 -.65146843199E+00 -.65145767535E+00 0.14661087190E+01
 0.26358384951E+01 0.38759117830E+01 0.49281205904E+01 0.56088457121E+01 0.58499689266E+01