 vasp.6.3.0 20Jan22 (build Feb 23 2022 13:54:07) complex                        
  
 executed on             LinuxIFC date 2022.07.05  09:23:53
 running on   24 total cores
 distrk:  each k-point on   24 cores,    1 groups
 distr:  one band on NCORE=   1 cores,   24 groups


--------------------------------------------------------------------------------------------------------


 -----------------------------------------------------------------------------
|                                                                             |
|           W    W    AA    RRRRR   N    N  II  N    N   GGGG   !!!           |
|           W    W   A  A   R    R  NN   N  II  NN   N  G    G  !!!           |
|           W    W  A    A  R    R  N N  N  II  N N  N  G       !!!           |
|           W WW W  AAAAAA  RRRRR   N  N N  II  N  N N  G  GGG   !            |
|           WW  WW  A    A  R   R   N   NN  II  N   NN  G    G                |
|           W    W  A    A  R    R  N    N  II  N    N   GGGG   !!!           |
|                                                                             |
|     Found issues when parsing the INCAR file                                |
|     In line 11: Tagname LWAVE	 contains invalid characters.                 |
|     In line 12: Tagname LCHARG	 contains invalid characters.                |
|     In line 13: Tagname LVTOT	 contains invalid characters.                 |
|     Please check if the interpretation in the OUTCAR file is correct.       |
|                                                                             |
 -----------------------------------------------------------------------------

 INCAR:
   SYSTEM = FeX
   EDIFF = 1.0e-06
   EDIFFG = -0.001
   ENCUT = 500
   NELM = 300
   IBRION = -1
   PREC = Accurate
   ISTART = 0
   ISMEAR = 1
   SIGMA = 0.10
   AMIX = 0.1
   BMIX = 0.01
   AMIX_MAG = 0.2
   BMIZ_MAG = 0.02
   ALGO = NORMAL
   LREAL = AUTO

 POTCAR:    PAW_PBE Fe 06Sep2000                  
 POTCAR:    PAW_PBE Co 02Aug2007                  
 -----------------------------------------------------------------------------
|                                                                             |
|           W    W    AA    RRRRR   N    N  II  N    N   GGGG   !!!           |
|           W    W   A  A   R    R  NN   N  II  NN   N  G    G  !!!           |
|           W    W  A    A  R    R  N N  N  II  N N  N  G       !!!           |
|           W WW W  AAAAAA  RRRRR   N  N N  II  N  N N  G  GGG   !            |
|           WW  WW  A    A  R   R   N   NN  II  N   NN  G    G                |
|           W    W  A    A  R    R  N    N  II  N    N   GGGG   !!!           |
|                                                                             |
|     For optimal performance we recommend to set                             |
|       NCORE = 2 up to number-of-cores-per-socket                            |
|     NCORE specifies how many cores store one orbital (NPAR=cpu/NCORE).      |
|     This setting can greatly improve the performance of VASP for DFT.       |
|     The default, NCORE=1 might be grossly inefficient on modern             |
|     multi-core architectures or massively parallel machines. Do your        |
|     own testing! More info at https://www.vasp.at/wiki/index.php/NCORE      |
|     Unfortunately you need to use the default for GW and RPA                |
|     calculations (for HF NCORE is supported but not extensively tested      |
|     yet).                                                                   |
|                                                                             |
 -----------------------------------------------------------------------------

 POTCAR:    PAW_PBE Fe 06Sep2000                  
   VRHFIN =Fe:  d7 s1                                                                               
   LEXCH  = PE                                                                                      
   EATOM  =   594.3153 eV,   43.6809 Ry                                                             
                                                                                                    
   TITEL  = PAW_PBE Fe 06Sep2000                                                                    
   LULTRA =        F    use ultrasoft PP ?                                                          
   IUNSCR =        1    unscreen: 0-lin 1-nonlin 2-no                                               
   RPACOR =    2.000    partial core radius                                                         
   POMASS =   55.847; ZVAL   =    8.000    mass and valenz                                          
   RCORE  =    2.300    outmost cutoff radius                                                       
   RWIGS  =    2.460; RWIGS  =    1.302    wigner-seitz radius (au A)                               
   ENMAX  =  267.882; ENMIN  =  200.911 eV                                                          
   RCLOC  =    1.701    cutoff for local pot                                                        
   LCOR   =        T    correct aug charges                                                         
   LPAW   =        T    paw PP                                                                      
   EAUG   =  511.368                                                                                
   DEXC   =    0.000                                                                                
   RMAX   =    2.356    core radius for proj-oper                                                   
   RAUG   =    1.300    factor for augmentation sphere                                              
   RDEP   =    2.442    radius for radial grids                                                     
   RDEPT  =    1.890    core radius for aug-charge                                                  
                                                                                                    
   Atomic configuration                                                                             
    9 entries                                                                                       
     n  l   j            E        occ.                                                              
     1  0  0.50     -6993.8440   2.0000                                                             
     2  0  0.50      -814.6047   2.0000                                                             
     2  1  1.50      -693.3689   6.0000                                                             
     3  0  0.50       -89.4732   2.0000                                                             
     3  1  1.50       -55.6373   6.0000                                                             
     3  2  2.50        -3.8151   7.0000                                                             
     4  0  0.50        -4.2551   1.0000                                                             
     4  1  1.50        -3.4015   0.0000                                                             
     4  3  2.50        -1.3606   0.0000                                                             
   Description                                                                                      
     l       E           TYP  RCUT    TYP  RCUT                                                     
     2     -3.8151135     23  2.300                                                                 
     2     -5.1756961     23  2.300                                                                 
     0     -4.2550963     23  2.300                                                                 
     0      7.2035603     23  2.300                                                                 
     1     -2.7211652     23  2.300                                                                 
     1     18.4316424     23  2.300                                                                 
  local pseudopotential read in
  partial core-charges read in
  partial kinetic energy density read in
  atomic valenz-charges read in
  non local Contribution for L=           2  read in
    real space projection operators read in
  non local Contribution for L=           2  read in
    real space projection operators read in
  non local Contribution for L=           0  read in
    real space projection operators read in
  non local Contribution for L=           0  read in
    real space projection operators read in
  non local Contribution for L=           1  read in
    real space projection operators read in
  non local Contribution for L=           1  read in
    real space projection operators read in
    PAW grid and wavefunctions read in
 
   number of l-projection  operators is LMAX  =           6
   number of lm-projection operators is LMMAX =          18
 
 POTCAR:    PAW_PBE Co 02Aug2007                  
   VRHFIN =Co: d8 s1                                                                                
   LEXCH  = PE                                                                                      
   EATOM  =   813.3670 eV,   59.7808 Ry                                                             
                                                                                                    
   TITEL  = PAW_PBE Co 02Aug2007                                                                    
   LULTRA =        F    use ultrasoft PP ?                                                          
   IUNSCR =        1    unscreen: 0-lin 1-nonlin 2-no                                               
   RPACOR =    2.000    partial core radius                                                         
   POMASS =   58.933; ZVAL   =    9.000    mass and valenz                                          
   RCORE  =    2.300    outmost cutoff radius                                                       
   RWIGS  =    2.460; RWIGS  =    1.302    wigner-seitz radius (au A)                               
   ENMAX  =  267.968; ENMIN  =  200.976 eV                                                          
   RCLOC  =    1.203    cutoff for local pot                                                        
   LCOR   =        T    correct aug charges                                                         
   LPAW   =        T    paw PP                                                                      
   EAUG   =  477.818                                                                                
   DEXC   =    0.000                                                                                
   RMAX   =    2.360    core radius for proj-oper                                                   
   RAUG   =    1.300    factor for augmentation sphere                                              
   RDEP   =    2.393    radius for radial grids                                                     
   RDEPT  =    1.864    core radius for aug-charge                                                  
                                                                                                    
   Atomic configuration                                                                             
    9 entries                                                                                       
     n  l   j            E        occ.                                                              
     1  0  0.50     -7587.6674   2.0000                                                             
     2  0  0.50      -893.6084   2.0000                                                             
     2  1  1.50      -764.5805   6.0000                                                             
     3  0  0.50       -97.5973   2.0000                                                             
     3  1  1.50       -60.9648   6.0000                                                             
     3  2  2.50        -4.2382   8.0000                                                             
     4  0  0.50        -4.3746   1.0000                                                             
     4  1  1.50        -4.0817   0.0000                                                             
     4  3  2.50        -1.3606   0.0000                                                             
   Description                                                                                      
     l       E           TYP  RCUT    TYP  RCUT                                                     
     2     -4.2382362     23  2.300                                                                 
     2     -5.5988188     23  2.300                                                                 
     0     -4.3745797     23  2.300                                                                 
     0      5.7660125     23  2.300                                                                 
     1     -2.7211652     23  2.300                                                                 
     1     16.9860234     23  2.300                                                                 
  local pseudopotential read in
  partial core-charges read in
  partial kinetic energy density read in
  atomic valenz-charges read in
  non local Contribution for L=           2  read in
    real space projection operators read in
  non local Contribution for L=           2  read in
    real space projection operators read in
  non local Contribution for L=           0  read in
    real space projection operators read in
  non local Contribution for L=           0  read in
    real space projection operators read in
  non local Contribution for L=           1  read in
    real space projection operators read in
  non local Contribution for L=           1  read in
    real space projection operators read in
    PAW grid and wavefunctions read in
 
   number of l-projection  operators is LMAX  =           6
   number of lm-projection operators is LMMAX =          18
 
 -----------------------------------------------------------------------------
|                                                                             |
|               ----> ADVICE to this user running VASP <----                  |
|                                                                             |
|     You have a (more or less) 'small supercell' and for smaller cells       |
|     it is recommended to use the reciprocal-space projection scheme!        |
|     The real-space optimization is not efficient for small cells and it     |
|     is also less accurate ...                                               |
|     Therefore, set LREAL=.FALSE. in the INCAR file.                         |
|                                                                             |
 -----------------------------------------------------------------------------

 Optimization of the real space projectors (new method)

 maximal supplied QI-value         = 16.25
 optimisation between [QCUT,QGAM] = [ 11.38, 22.75] = [ 36.24,144.96] Ry 
 Optimized for a Real-space Cutoff    1.52 Angstroem

   l    n(q)    QCUT    max X(q) W(low)/X(q) W(high)/X(q)  e(spline) 
   2      9    11.376    80.901    0.22E-03    0.86E-04    0.27E-06
   2      9    11.376    75.754    0.23E-03    0.87E-04    0.27E-06
   0     10    11.376    58.752    0.56E-04    0.38E-04    0.25E-06
   0     10    11.376    30.679    0.47E-04    0.35E-04    0.23E-06
   1     10    11.376    17.977    0.50E-04    0.42E-04    0.12E-06
   1     10    11.376    13.559    0.42E-04    0.37E-04    0.11E-06
 Optimization of the real space projectors (new method)

 maximal supplied QI-value         = 16.25
 optimisation between [QCUT,QGAM] = [ 11.38, 22.75] = [ 36.24,144.96] Ry 
 Optimized for a Real-space Cutoff    1.43 Angstroem

   l    n(q)    QCUT    max X(q) W(low)/X(q) W(high)/X(q)  e(spline) 
   2      9    11.376    65.824    0.18E-03    0.28E-04    0.14E-06
   2      9    11.376    61.429    0.18E-03    0.29E-04    0.14E-06
   0     10    11.376    56.174    0.51E-04    0.12E-03    0.20E-06
   0     10    11.376    31.263    0.46E-04    0.11E-03    0.18E-06
   1      9    11.376    19.828    0.23E-03    0.17E-03    0.10E-06
   1      9    11.376    15.139    0.20E-03    0.14E-03    0.89E-07
  PAW_PBE Fe 06Sep2000                  :
 energy of atom  1       EATOM= -594.3153
 kinetic energy error for atom=    0.0026 (will be added to EATOM!!)
  PAW_PBE Co 02Aug2007                  :
 energy of atom  2       EATOM= -813.3670
 kinetic energy error for atom=    0.0028 (will be added to EATOM!!)
 
 
 POSCAR: Fe7 Co1
  positions in direct lattice
  No initial velocities read in
 exchange correlation table for  LEXCH =        8
   RHO(1)=    0.500       N(1)  =     2000
   RHO(2)=  100.500       N(2)  =     4000
 


--------------------------------------------------------------------------------------------------------


 ion  position               nearest neighbor table
   1  0.000  0.500  0.500-   4 2.48   5 2.48   6 2.48   7 2.48   5 2.48   4 2.48   7 2.48   6 2.48
                             3 2.86   8 2.86   8 2.86   2 2.86   3 2.86   2 2.86
   2  0.500  0.500  0.000-   4 2.48   5 2.48   6 2.48   7 2.48   7 2.48   6 2.48   5 2.48   4 2.48
                             3 2.86   3 2.86   8 2.86   1 2.86   8 2.86   1 2.86
   3  0.500  0.000  0.500-   4 2.48   5 2.48   6 2.48   7 2.48   6 2.48   7 2.48   4 2.48   5 2.48
                             2 2.86   2 2.86   8 2.86   8 2.86   1 2.86   1 2.86
   4  0.000  0.000  0.500-   1 2.48   2 2.48   3 2.48   8 2.48   8 2.48   1 2.48   3 2.48   2 2.48
                             7 2.86   5 2.86   5 2.86   6 2.86   7 2.86   6 2.86
   5  0.000  0.500  0.000-   1 2.48   2 2.48   3 2.48   8 2.48   1 2.48   8 2.48   2 2.48   3 2.48
                             7 2.86   4 2.86   4 2.86   7 2.86   6 2.86   6 2.86
   6  0.500  0.000  0.000-   1 2.48   2 2.48   3 2.48   8 2.48   3 2.48   2 2.48   8 2.48   1 2.48
                             7 2.86   7 2.86   4 2.86   4 2.86   5 2.86   5 2.86
   7  0.500  0.500  0.500-   1 2.48   2 2.48   3 2.48   8 2.48   2 2.48   3 2.48   1 2.48   8 2.48
                             6 2.86   6 2.86   4 2.86   5 2.86   4 2.86   5 2.86
   8  0.000  0.000  0.000-   4 2.48   5 2.48   6 2.48   7 2.48   4 2.48   5 2.48   6 2.48   7 2.48
                             3 2.86   1 2.86   1 2.86   3 2.86   2 2.86   2 2.86
 
  LATTYP: Found a body centered cubic cell.
 ALAT       =     5.7211440000
  
  Lattice vectors:
  
 A1 = (  -2.8605720000,   2.8605720000,   2.8605720000)
 A2 = (   2.8605720000,  -2.8605720000,   2.8605720000)
 A3 = (   2.8605720000,   2.8605720000,  -2.8605720000)


Analysis of symmetry for initial positions (statically):
=====================================================================
 Subroutine PRICEL returns:
 Original cell was already a primitive cell.
 

 Routine SETGRP: Setting up the symmetry group for a 
 body centered cubic supercell.


 Subroutine GETGRP returns: Found 48 space group operations
 (whereof 48 operations were pure point group operations)
 out of a pool of 48 trial point group operations.


The static configuration has the point symmetry O_h .


Analysis of symmetry for dynamics (positions and initial velocities):
=====================================================================
 Subroutine PRICEL returns:
 Original cell was already a primitive cell.
 

 Routine SETGRP: Setting up the symmetry group for a 
 body centered cubic supercell.


 Subroutine GETGRP returns: Found 48 space group operations
 (whereof 48 operations were pure point group operations)
 out of a pool of 48 trial point group operations.


The dynamic configuration has the point symmetry O_h .


 Subroutine INISYM returns: Found 48 space group operations
 (whereof 48 operations are pure point group operations),
 and found     1 'primitive' translations


----------------------------------------------------------------------------------------

                                     Primitive cell                                     

  volume of cell :      93.6308

  direct lattice vectors                    reciprocal lattice vectors
    -2.860572000  2.860572000  2.860572000    -0.000000000  0.174790217  0.174790217
     2.860572000 -2.860572000  2.860572000     0.174790217 -0.000000000  0.174790217
     2.860572000  2.860572000 -2.860572000     0.174790217  0.174790217 -0.000000000

  length of vectors
     4.954656043  4.954656043  4.954656043     0.247190695  0.247190695  0.247190695

  position of ions in fractional coordinates (direct lattice)
     0.000000000  0.500000000  0.500000000
     0.500000000  0.500000000  1.000000000
     0.500000000  0.000000000  0.500000000
     1.000000000  1.000000000  0.500000000
     0.000000000  0.500000000  1.000000000
     0.500000000  0.000000000  1.000000000
     0.500000000  0.500000000  0.500000000
     0.000000000  0.000000000  0.000000000

  ion indices of the primitive-cell ions
   primitive index   ion index
                 1           1
                 2           2
                 3           3
                 4           4
                 5           5
                 6           6
                 7           7
                 8           8

----------------------------------------------------------------------------------------

 
 
 KPOINTS: Self-generated KPOINTS with latt*nkp pro

Automatic generation of k-mesh.
 Grid dimensions derived from RKLEN:
 generate k-points for:   12   12   12

 Generating k-lattice:

  Cartesian coordinates                     Fractional coordinates (reciprocal lattice)
    -0.000000000  0.014565851  0.014565851     0.083333333 -0.000000000  0.000000000
     0.014565851 -0.000000000  0.014565851    -0.000000000  0.083333333  0.000000000
     0.014565851  0.014565851 -0.000000000     0.000000000 -0.000000000  0.083333333

  Length of vectors
     0.020599225  0.020599225  0.020599225

  Shift w.r.t. Gamma in fractional coordinates (k-lattice)
     0.000000000  0.000000000  0.000000000

 
 Subroutine IBZKPT returns following result:
 ===========================================
 
 Found     72 irreducible k-points:
 
 Following reciprocal coordinates:
            Coordinates               Weight
  0.000000  0.000000  0.000000      1.000000
  0.083333  0.000000  0.000000     12.000000
  0.166667 -0.000000  0.000000     12.000000
  0.250000  0.000000 -0.000000     12.000000
  0.333333  0.000000  0.000000     12.000000
  0.416667 -0.000000  0.000000     12.000000
  0.500000  0.000000 -0.000000      6.000000
  0.083333  0.083333 -0.000000     24.000000
  0.166667  0.083333 -0.000000     48.000000
  0.250000  0.083333  0.000000     48.000000
  0.333333  0.083333 -0.000000     48.000000
  0.416667  0.083333  0.000000     48.000000
  0.166667  0.166667  0.000000     24.000000
  0.250000  0.166667  0.000000     48.000000
  0.333333  0.166667 -0.000000     48.000000
  0.416667  0.166667  0.000000     24.000000
  0.250000  0.250000 -0.000000     24.000000
  0.333333  0.250000  0.000000     48.000000
  0.333333  0.333333 -0.000000      8.000000
  0.083333  0.083333  0.083333      8.000000
  0.166667  0.083333  0.083333     24.000000
  0.250000  0.083333  0.083333     24.000000
  0.333333  0.083333  0.083333     24.000000
  0.416667  0.083333  0.083333     12.000000
 -0.083333  0.083333  0.083333      6.000000
  0.166667  0.166667  0.083333     24.000000
  0.250000  0.166667  0.083333     48.000000
  0.333333  0.166667  0.083333     48.000000
 -0.166667  0.166667  0.083333     24.000000
  0.250000  0.250000  0.083333     24.000000
  0.333333  0.250000  0.083333     24.000000
 -0.250000  0.250000  0.083333     24.000000
 -0.166667  0.250000  0.083333     24.000000
 -0.333333  0.333333  0.083333     24.000000
 -0.250000  0.333333  0.083333     48.000000
 -0.416667  0.416667  0.083333     24.000000
 -0.333333  0.416667  0.083333     48.000000
 -0.250000  0.416667  0.083333     24.000000
  0.500000  0.500000  0.083333     12.000000
 -0.416667  0.500000  0.083333     48.000000
 -0.333333  0.500000  0.083333     48.000000
 -0.416667 -0.416667  0.083333     24.000000
 -0.333333 -0.416667  0.083333     24.000000
  0.166667  0.166667  0.166667      8.000000
  0.250000  0.166667  0.166667     24.000000
  0.333333  0.166667  0.166667     12.000000
 -0.166667  0.166667  0.166667      6.000000
  0.250000  0.250000  0.166667     24.000000
 -0.250000  0.250000  0.166667     24.000000
 -0.333333  0.333333  0.166667     24.000000
 -0.250000  0.333333  0.166667     24.000000
 -0.416667  0.416667  0.166667     24.000000
 -0.333333  0.416667  0.166667     48.000000
  0.500000  0.500000  0.166667     12.000000
 -0.416667  0.500000  0.166667     48.000000
 -0.333333  0.500000  0.166667     24.000000
 -0.416667 -0.416667  0.166667     24.000000
  0.250000  0.250000  0.250000      2.000000
 -0.250000  0.250000  0.250000      6.000000
 -0.333333  0.333333  0.250000     24.000000
 -0.416667  0.416667  0.250000     24.000000
 -0.333333  0.416667  0.250000     24.000000
  0.500000  0.500000  0.250000     12.000000
 -0.416667  0.500000  0.250000     48.000000
 -0.416667 -0.416667  0.250000      8.000000
 -0.333333  0.333333  0.333333      6.000000
 -0.416667  0.416667  0.333333     24.000000
  0.500000  0.500000  0.333333     12.000000
 -0.416667  0.500000  0.333333     24.000000
 -0.416667  0.416667  0.416667      6.000000
  0.500000  0.500000  0.416667     12.000000
  0.500000  0.500000  0.500000      1.000000
 
 Following cartesian coordinates:
            Coordinates               Weight
  0.000000  0.000000  0.000000      1.000000
  0.000000  0.014566  0.014566     12.000000
  0.000000  0.029132  0.029132     12.000000
 -0.000000  0.043698  0.043698     12.000000
  0.000000  0.058263  0.058263     12.000000
  0.000000  0.072829  0.072829     12.000000
 -0.000000  0.087395  0.087395      6.000000
  0.014566  0.014566  0.029132     24.000000
  0.014566  0.029132  0.043698     48.000000
  0.014566  0.043698  0.058263     48.000000
  0.014566  0.058263  0.072829     48.000000
  0.014566  0.072829  0.087395     48.000000
  0.029132  0.029132  0.058263     24.000000
  0.029132  0.043698  0.072829     48.000000
  0.029132  0.058263  0.087395     48.000000
  0.029132  0.072829  0.101961     24.000000
  0.043698  0.043698  0.087395     24.000000
  0.043698  0.058263  0.101961     48.000000
  0.058263  0.058263  0.116527      8.000000
  0.029132  0.029132  0.029132      8.000000
  0.029132  0.043698  0.043698     24.000000
  0.029132  0.058263  0.058263     24.000000
  0.029132  0.072829  0.072829     24.000000
  0.029132  0.087395  0.087395     12.000000
  0.029132 -0.000000 -0.000000      6.000000
  0.043698  0.043698  0.058263     24.000000
  0.043698  0.058263  0.072829     48.000000
  0.043698  0.072829  0.087395     48.000000
  0.043698 -0.014566  0.000000     24.000000
  0.058263  0.058263  0.087395     24.000000
  0.058263  0.072829  0.101961     24.000000
  0.058263 -0.029132 -0.000000     24.000000
  0.058263 -0.014566  0.014566     24.000000
  0.072829 -0.043698 -0.000000     24.000000
  0.072829 -0.029132  0.014566     48.000000
  0.087395 -0.058263  0.000000     24.000000
  0.087395 -0.043698  0.014566     48.000000
  0.087395 -0.029132  0.029132     24.000000
  0.101961  0.101961  0.174790     12.000000
  0.101961 -0.058263  0.014566     48.000000
  0.101961 -0.043698  0.029132     48.000000
 -0.058263 -0.058263 -0.145659     24.000000
 -0.058263 -0.043698 -0.131093     24.000000
  0.058263  0.058263  0.058263      8.000000
  0.058263  0.072829  0.072829     24.000000
  0.058263  0.087395  0.087395     12.000000
  0.058263  0.000000  0.000000      6.000000
  0.072829  0.072829  0.087395     24.000000
  0.072829 -0.014566  0.000000     24.000000
  0.087395 -0.029132 -0.000000     24.000000
  0.087395 -0.014566  0.014566     24.000000
  0.101961 -0.043698  0.000000     24.000000
  0.101961 -0.029132  0.014566     48.000000
  0.116527  0.116527  0.174790     12.000000
  0.116527 -0.043698  0.014566     48.000000
  0.116527 -0.029132  0.029132     24.000000
 -0.043698 -0.043698 -0.145659     24.000000
  0.087395  0.087395  0.087395      2.000000
  0.087395  0.000000 -0.000000      6.000000
  0.101961 -0.014566 -0.000000     24.000000
  0.116527 -0.029132  0.000000     24.000000
  0.116527 -0.014566  0.014566     24.000000
  0.131093  0.131093  0.174790     12.000000
  0.131093 -0.029132  0.014566     48.000000
 -0.029132 -0.029132 -0.145659      8.000000
  0.116527 -0.000000 -0.000000      6.000000
  0.131093 -0.014566  0.000000     24.000000
  0.145659  0.145659  0.174790     12.000000
  0.145659 -0.014566  0.014566     24.000000
  0.145659  0.000000  0.000000      6.000000
  0.160224  0.160224  0.174790     12.000000
  0.174790  0.174790  0.174790      1.000000
 


--------------------------------------------------------------------------------------------------------




 Dimension of arrays:
   k-points           NKPTS =     72   k-points in BZ     NKDIM =     72   number of bands    NBANDS=     48
   number of dos      NEDOS =    301   number of ions     NIONS =      8
   non local maximal  LDIM  =      6   non local SUM 2l+1 LMDIM =     18
   total plane-waves  NPLWV =  46656
   max r-space proj   IRMAX =   7360   max aug-charges    IRDMAX=  19850
   dimension x,y,z NGX =    36 NGY =   36 NGZ =   36
   dimension x,y,z NGXF=    72 NGYF=   72 NGZF=   72
   support grid    NGXF=    72 NGYF=   72 NGZF=   72
   ions per type =               7   1
   NGX,Y,Z   is equivalent  to a cutoff of  12.08, 12.08, 12.08 a.u.
   NGXF,Y,Z  is equivalent  to a cutoff of  24.16, 24.16, 24.16 a.u.

 SYSTEM =  FeX                                     
 POSCAR =  Fe7 Co1                                 

 Startparameter for this run:
   NWRITE =      2    write-flag & timer
   PREC   = accura    normal or accurate (medium, high low for compatibility)
   ISTART =      0    job   : 0-new  1-cont  2-samecut
   ICHARG =      2    charge: 1-file 2-atom 10-const
   ISPIN  =      1    spin polarized calculation?
   LNONCOLLINEAR =      F non collinear calculations
   LSORBIT =      F    spin-orbit coupling
   INIWAV =      1    electr: 0-lowe 1-rand  2-diag
   LASPH  =      F    aspherical Exc in radial PAW
 Electronic Relaxation 1
   ENCUT  =  500.0 eV  36.75 Ry    6.06 a.u.   9.03  9.03  9.03*2*pi/ulx,y,z
   ENINI  =  500.0     initial cutoff
   ENAUG  =  511.4 eV  augmentation charge cutoff
   NELM   =    300;   NELMIN=  2; NELMDL= -5     # of ELM steps 
   EDIFF  = 0.1E-05   stopping-criterion for ELM
   LREAL  =      T    real-space projection
   NLSPLINE    = F    spline interpolate recip. space projectors
   LCOMPAT=      F    compatible to vasp.4.4
   GGA_COMPAT  = T    GGA compatible to vasp.4.4-vasp.4.6
   LMAXPAW     = -100 max onsite density
   LMAXMIX     =    2 max onsite mixed and CHGCAR
   VOSKOWN=      0    Vosko Wilk Nusair interpolation
   ROPT   =   -0.00025  -0.00025
 Ionic relaxation
   EDIFFG = -.1E-02   stopping-criterion for IOM
   NSW    =      0    number of steps for IOM
   NBLOCK =      1;   KBLOCK =      1    inner block; outer block 
   IBRION =     -1    ionic relax: 0-MD 1-quasi-New 2-CG
   NFREE  =      0    steps in history (QN), initial steepest desc. (CG)
   ISIF   =      2    stress and relaxation
   IWAVPR =     10    prediction:  0-non 1-charg 2-wave 3-comb
   ISYM   =      2    0-nonsym 1-usesym 2-fastsym
   LCORR  =      T    Harris-Foulkes like correction to forces

   POTIM  = 0.5000    time-step for ionic-motion
   TEIN   =    0.0    initial temperature
   TEBEG  =    0.0;   TEEND  =   0.0 temperature during run
   SMASS  =  -3.00    Nose mass-parameter (am)
   estimated Nose-frequenzy (Omega)   =  0.10E-29 period in steps = 0.13E+47 mass=  -0.561E-27a.u.
   SCALEE = 1.0000    scale energy and forces
   NPACO  =    256;   APACO  = 10.0  distance and # of slots for P.C.
   PSTRESS=    0.0 pullay stress

  Mass of Ions in am
   POMASS =  55.85 58.93
  Ionic Valenz
   ZVAL   =   8.00  9.00
  Atomic Wigner-Seitz radii
   RWIGS  =  -1.00 -1.00
  virtual crystal weights 
   VCA    =   1.00  1.00
   NELECT =      65.0000    total number of electrons
   NUPDOWN=      -1.0000    fix difference up-down

 DOS related values:
   EMIN   =  10.00;   EMAX   =-10.00  energy-range for DOS
   EFERMI =   0.00
   ISMEAR =     1;   SIGMA  =   0.10  broadening in eV -4-tet -1-fermi 0-gaus

 Electronic relaxation 2 (details)
   IALGO  =     38    algorithm
   LDIAG  =      T    sub-space diagonalisation (order eigenvalues)
   LSUBROT=      F    optimize rotation matrix (better conditioning)
   TURBO    =      0    0=normal 1=particle mesh
   IRESTART =      0    0=no restart 2=restart with 2 vectors
   NREBOOT  =      0    no. of reboots
   NMIN     =      0    reboot dimension
   EREF     =   0.00    reference energy to select bands
   IMIX   =      4    mixing-type and parameters
     AMIX     =   0.10;   BMIX     =  0.01
     AMIX_MAG =   0.20;   BMIX_MAG =  0.01
     AMIN     =   0.10
     WC   =   100.;   INIMIX=   1;  MIXPRE=   1;  MAXMIX= -45

 Intra band minimization:
   WEIMIN = 0.0000     energy-eigenvalue tresh-hold
   EBREAK =  0.52E-08  absolut break condition
   DEPER  =   0.30     relativ break condition  

   TIME   =   0.40     timestep for ELM

  volume/ion in A,a.u.               =      11.70        78.98
  Fermi-wavevector in a.u.,A,eV,Ry     =   1.449572  2.739294 28.589357  2.101258
  Thomas-Fermi vector in A             =   2.567283
 
 Write flags
   LWAVE        =      T    write WAVECAR
   LDOWNSAMPLE  =      F    k-point downsampling of WAVECAR
   LCHARG       =      T    write CHGCAR
   LVTOT        =      F    write LOCPOT, total local potential
   LVHAR        =      F    write LOCPOT, Hartree potential only
   LELF         =      F    write electronic localiz. function (ELF)
   LORBIT       =      0    0 simple, 1 ext, 2 COOP (PROOUT), +10 PAW based schemes


 Dipole corrections
   LMONO  =      F    monopole corrections only (constant potential shift)
   LDIPOL =      F    correct potential (dipole corrections)
   IDIPOL =      0    1-x, 2-y, 3-z, 4-all directions 
   EPSILON=  1.0000000 bulk dielectric constant

 Exchange correlation treatment:
   GGA     =    --    GGA type
   LEXCH   =     8    internal setting for exchange type
   LIBXC   =     F    Libxc                    
   VOSKOWN =     0    Vosko Wilk Nusair interpolation
   LHFCALC =     F    Hartree Fock is set to
   LHFONE  =     F    Hartree Fock one center treatment
   AEXX    =    0.0000 exact exchange contribution

 Linear response parameters
   LEPSILON=     F    determine dielectric tensor
   LRPA    =     F    only Hartree local field effects (RPA)
   LNABLA  =     F    use nabla operator in PAW spheres
   LVEL    =     F    velocity operator in full k-point grid
   CSHIFT  =0.1000    complex shift for real part using Kramers Kronig
   OMEGAMAX=  -1.0    maximum frequency
   DEG_THRESHOLD= 0.2000000E-02 threshold for treating states as degnerate
   RTIME   =   -0.100 relaxation time in fs
  (WPLASMAI=    0.000 imaginary part of plasma frequency in eV, 0.658/RTIME)
   DFIELD  = 0.0000000 0.0000000 0.0000000 field for delta impulse in time
 
  Optional k-point grid parameters
   LKPOINTS_OPT  =     F    use optional k-point grid
   KPOINTS_OPT_MODE=     1    mode for optional k-point grid
 
 Orbital magnetization related:
   ORBITALMAG=     F  switch on orbital magnetization
   LCHIMAG   =     F  perturbation theory with respect to B field
   DQ        =  0.001000  dq finite difference perturbation B field
   LLRAUG    =     F  two centre corrections for induced B field



--------------------------------------------------------------------------------------------------------


 Static calculation
 charge density and potential will be updated during run
 non-spin polarized calculation
 Variant of blocked Davidson
 Davidson routine will perform the subspace rotation
 perform sub-space diagonalisation
    after iterative eigenvector-optimisation
 modified Broyden-mixing scheme, WC =      100.0
 initial mixing is a Kerker type mixing with AMIX =  0.1000 and BMIX =      0.0100
 Hartree-type preconditioning will be used
 using additional bands           15
 real space projection scheme for non local part
 use partial core corrections
 calculate Harris-corrections to forces 
   (improved forces if not selfconsistent)
 use gradient corrections 
 use of overlap-Matrix (Vanderbilt PP)
 Methfessel and Paxton  Order N= 1 SIGMA  =   0.10


--------------------------------------------------------------------------------------------------------


  energy-cutoff  :      500.00
  volume of cell :       93.63
      direct lattice vectors                 reciprocal lattice vectors
    -2.860572000  2.860572000  2.860572000    -0.000000000  0.174790217  0.174790217
     2.860572000 -2.860572000  2.860572000     0.174790217 -0.000000000  0.174790217
     2.860572000  2.860572000 -2.860572000     0.174790217  0.174790217 -0.000000000

  length of vectors
     4.954656043  4.954656043  4.954656043     0.247190695  0.247190695  0.247190695


 
 k-points in units of 2pi/SCALE and weight: Self-generated KPOINTS with latt*nkp pro
   0.00000000  0.00000000  0.00000000       0.001
   0.00000000  0.01456585  0.01456585       0.007
   0.00000000  0.02913170  0.02913170       0.007
  -0.00000000  0.04369755  0.04369755       0.007
   0.00000000  0.05826341  0.05826341       0.007
   0.00000000  0.07282926  0.07282926       0.007
  -0.00000000  0.08739511  0.08739511       0.003
   0.01456585  0.01456585  0.02913170       0.014
   0.01456585  0.02913170  0.04369755       0.028
   0.01456585  0.04369755  0.05826341       0.028
   0.01456585  0.05826341  0.07282926       0.028
   0.01456585  0.07282926  0.08739511       0.028
   0.02913170  0.02913170  0.05826341       0.014
   0.02913170  0.04369755  0.07282926       0.028
   0.02913170  0.05826341  0.08739511       0.028
   0.02913170  0.07282926  0.10196096       0.014
   0.04369755  0.04369755  0.08739511       0.014
   0.04369755  0.05826341  0.10196096       0.028
   0.05826341  0.05826341  0.11652681       0.005
   0.02913170  0.02913170  0.02913170       0.005
   0.02913170  0.04369755  0.04369755       0.014
   0.02913170  0.05826341  0.05826341       0.014
   0.02913170  0.07282926  0.07282926       0.014
   0.02913170  0.08739511  0.08739511       0.007
   0.02913170 -0.00000000 -0.00000000       0.003
   0.04369755  0.04369755  0.05826341       0.014
   0.04369755  0.05826341  0.07282926       0.028
   0.04369755  0.07282926  0.08739511       0.028
   0.04369755 -0.01456585 -0.00000000       0.014
   0.05826341  0.05826341  0.08739511       0.014
   0.05826341  0.07282926  0.10196096       0.014
   0.05826341 -0.02913170  0.00000000       0.014
   0.05826341 -0.01456585  0.01456585       0.014
   0.07282926 -0.04369755  0.00000000       0.014
   0.07282926 -0.02913170  0.01456585       0.028
   0.08739511 -0.05826341 -0.00000000       0.014
   0.08739511 -0.04369755  0.01456585       0.028
   0.08739511 -0.02913170  0.02913170       0.014
   0.10196096  0.10196096  0.17479022       0.007
   0.10196096 -0.05826341  0.01456585       0.028
   0.10196096 -0.04369755  0.02913170       0.028
  -0.05826341 -0.05826341 -0.14565851       0.014
  -0.05826341 -0.04369755 -0.13109266       0.014
   0.05826341  0.05826341  0.05826341       0.005
   0.05826341  0.07282926  0.07282926       0.014
   0.05826341  0.08739511  0.08739511       0.007
   0.05826341  0.00000000 -0.00000000       0.003
   0.07282926  0.07282926  0.08739511       0.014
   0.07282926 -0.01456585 -0.00000000       0.014
   0.08739511 -0.02913170 -0.00000000       0.014
   0.08739511 -0.01456585  0.01456585       0.014
   0.10196096 -0.04369755 -0.00000000       0.014
   0.10196096 -0.02913170  0.01456585       0.028
   0.11652681  0.11652681  0.17479022       0.007
   0.11652681 -0.04369755  0.01456585       0.028
   0.11652681 -0.02913170  0.02913170       0.014
  -0.04369755 -0.04369755 -0.14565851       0.014
   0.08739511  0.08739511  0.08739511       0.001
   0.08739511  0.00000000  0.00000000       0.003
   0.10196096 -0.01456585 -0.00000000       0.014
   0.11652681 -0.02913170 -0.00000000       0.014
   0.11652681 -0.01456585  0.01456585       0.014
   0.13109266  0.13109266  0.17479022       0.007
   0.13109266 -0.02913170  0.01456585       0.028
  -0.02913170 -0.02913170 -0.14565851       0.005
   0.11652681 -0.00000000  0.00000000       0.003
   0.13109266 -0.01456585 -0.00000000       0.014
   0.14565851  0.14565851  0.17479022       0.007
   0.14565851 -0.01456585  0.01456585       0.014
   0.14565851  0.00000000 -0.00000000       0.003
   0.16022437  0.16022437  0.17479022       0.007
   0.17479022  0.17479022  0.17479022       0.001
 
 k-points in reciprocal lattice and weights: Self-generated KPOINTS with latt*nkp pro
   0.00000000  0.00000000  0.00000000       0.001
   0.08333333  0.00000000  0.00000000       0.007
   0.16666667 -0.00000000  0.00000000       0.007
   0.25000000  0.00000000 -0.00000000       0.007
   0.33333333  0.00000000  0.00000000       0.007
   0.41666667 -0.00000000  0.00000000       0.007
   0.50000000  0.00000000 -0.00000000       0.003
   0.08333333  0.08333333 -0.00000000       0.014
   0.16666667  0.08333333 -0.00000000       0.028
   0.25000000  0.08333333  0.00000000       0.028
   0.33333333  0.08333333 -0.00000000       0.028
   0.41666667  0.08333333  0.00000000       0.028
   0.16666667  0.16666667  0.00000000       0.014
   0.25000000  0.16666667  0.00000000       0.028
   0.33333333  0.16666667 -0.00000000       0.028
   0.41666667  0.16666667  0.00000000       0.014
   0.25000000  0.25000000 -0.00000000       0.014
   0.33333333  0.25000000  0.00000000       0.028
   0.33333333  0.33333333 -0.00000000       0.005
   0.08333333  0.08333333  0.08333333       0.005
   0.16666667  0.08333333  0.08333333       0.014
   0.25000000  0.08333333  0.08333333       0.014
   0.33333333  0.08333333  0.08333333       0.014
   0.41666667  0.08333333  0.08333333       0.007
  -0.08333333  0.08333333  0.08333333       0.003
   0.16666667  0.16666667  0.08333333       0.014
   0.25000000  0.16666667  0.08333333       0.028
   0.33333333  0.16666667  0.08333333       0.028
  -0.16666667  0.16666667  0.08333333       0.014
   0.25000000  0.25000000  0.08333333       0.014
   0.33333333  0.25000000  0.08333333       0.014
  -0.25000000  0.25000000  0.08333333       0.014
  -0.16666667  0.25000000  0.08333333       0.014
  -0.33333333  0.33333333  0.08333333       0.014
  -0.25000000  0.33333333  0.08333333       0.028
  -0.41666667  0.41666667  0.08333333       0.014
  -0.33333333  0.41666667  0.08333333       0.028
  -0.25000000  0.41666667  0.08333333       0.014
   0.50000000  0.50000000  0.08333333       0.007
  -0.41666667  0.50000000  0.08333333       0.028
  -0.33333333  0.50000000  0.08333333       0.028
  -0.41666667 -0.41666667  0.08333333       0.014
  -0.33333333 -0.41666667  0.08333333       0.014
   0.16666667  0.16666667  0.16666667       0.005
   0.25000000  0.16666667  0.16666667       0.014
   0.33333333  0.16666667  0.16666667       0.007
  -0.16666667  0.16666667  0.16666667       0.003
   0.25000000  0.25000000  0.16666667       0.014
  -0.25000000  0.25000000  0.16666667       0.014
  -0.33333333  0.33333333  0.16666667       0.014
  -0.25000000  0.33333333  0.16666667       0.014
  -0.41666667  0.41666667  0.16666667       0.014
  -0.33333333  0.41666667  0.16666667       0.028
   0.50000000  0.50000000  0.16666667       0.007
  -0.41666667  0.50000000  0.16666667       0.028
  -0.33333333  0.50000000  0.16666667       0.014
  -0.41666667 -0.41666667  0.16666667       0.014
   0.25000000  0.25000000  0.25000000       0.001
  -0.25000000  0.25000000  0.25000000       0.003
  -0.33333333  0.33333333  0.25000000       0.014
  -0.41666667  0.41666667  0.25000000       0.014
  -0.33333333  0.41666667  0.25000000       0.014
   0.50000000  0.50000000  0.25000000       0.007
  -0.41666667  0.50000000  0.25000000       0.028
  -0.41666667 -0.41666667  0.25000000       0.005
  -0.33333333  0.33333333  0.33333333       0.003
  -0.41666667  0.41666667  0.33333333       0.014
   0.50000000  0.50000000  0.33333333       0.007
  -0.41666667  0.50000000  0.33333333       0.014
  -0.41666667  0.41666667  0.41666667       0.003
   0.50000000  0.50000000  0.41666667       0.007
   0.50000000  0.50000000  0.50000000       0.001
 
 position of ions in fractional coordinates (direct lattice) 
   0.00000000  0.50000000  0.50000000
   0.50000000  0.50000000  0.00000000
   0.50000000  0.00000000  0.50000000
   0.00000000  0.00000000  0.50000000
   0.00000000  0.50000000  0.00000000
   0.50000000  0.00000000  0.00000000
   0.50000000  0.50000000  0.50000000
   0.00000000  0.00000000  0.00000000
 
 position of ions in cartesian coordinates  (Angst):
   2.86057200  0.00000000  0.00000000
   0.00000000  0.00000000  2.86057200
   0.00000000  2.86057200  0.00000000
   1.43028600  1.43028600 -1.43028600
   1.43028600 -1.43028600  1.43028600
  -1.43028600  1.43028600  1.43028600
   1.43028600  1.43028600  1.43028600
   0.00000000  0.00000000  0.00000000
 


--------------------------------------------------------------------------------------------------------


 k-point   1 :   0.0000 0.0000 0.0000  plane waves:    2347
 k-point   2 :   0.0833 0.0000 0.0000  plane waves:    2369
 k-point   3 :   0.1667-0.0000 0.0000  plane waves:    2373
 k-point   4 :   0.2500 0.0000-0.0000  plane waves:    2367
 k-point   5 :   0.3333 0.0000 0.0000  plane waves:    2365
 k-point   6 :   0.4167-0.0000 0.0000  plane waves:    2376
 k-point   7 :   0.5000 0.0000-0.0000  plane waves:    2390
 k-point   8 :   0.0833 0.0833-0.0000  plane waves:    2374
 k-point   9 :   0.1667 0.0833-0.0000  plane waves:    2370
 k-point  10 :   0.2500 0.0833 0.0000  plane waves:    2368
 k-point  11 :   0.3333 0.0833-0.0000  plane waves:    2373
 k-point  12 :   0.4167 0.0833 0.0000  plane waves:    2369
 k-point  13 :   0.1667 0.1667 0.0000  plane waves:    2369
 k-point  14 :   0.2500 0.1667 0.0000  plane waves:    2373
 k-point  15 :   0.3333 0.1667-0.0000  plane waves:    2372
 k-point  16 :   0.4167 0.1667 0.0000  plane waves:    2371
 k-point  17 :   0.2500 0.2500-0.0000  plane waves:    2369
 k-point  18 :   0.3333 0.2500 0.0000  plane waves:    2376
 k-point  19 :   0.3333 0.3333-0.0000  plane waves:    2385
 k-point  20 :   0.0833 0.0833 0.0833  plane waves:    2385
 k-point  21 :   0.1667 0.0833 0.0833  plane waves:    2375
 k-point  22 :   0.2500 0.0833 0.0833  plane waves:    2372
 k-point  23 :   0.3333 0.0833 0.0833  plane waves:    2361
 k-point  24 :   0.4167 0.0833 0.0833  plane waves:    2362
 k-point  25 :  -0.0833 0.0833 0.0833  plane waves:    2375
 k-point  26 :   0.1667 0.1667 0.0833  plane waves:    2376
 k-point  27 :   0.2500 0.1667 0.0833  plane waves:    2373
 k-point  28 :   0.3333 0.1667 0.0833  plane waves:    2367
 k-point  29 :  -0.1667 0.1667 0.0833  plane waves:    2371
 k-point  30 :   0.2500 0.2500 0.0833  plane waves:    2368
 k-point  31 :   0.3333 0.2500 0.0833  plane waves:    2374
 k-point  32 :  -0.2500 0.2500 0.0833  plane waves:    2362
 k-point  33 :  -0.1667 0.2500 0.0833  plane waves:    2377
 k-point  34 :  -0.3333 0.3333 0.0833  plane waves:    2375
 k-point  35 :  -0.2500 0.3333 0.0833  plane waves:    2373
 k-point  36 :  -0.4167 0.4167 0.0833  plane waves:    2374
 k-point  37 :  -0.3333 0.4167 0.0833  plane waves:    2377
 k-point  38 :  -0.2500 0.4167 0.0833  plane waves:    2376
 k-point  39 :   0.5000 0.5000 0.0833  plane waves:    2368
 k-point  40 :  -0.4167 0.5000 0.0833  plane waves:    2377
 k-point  41 :  -0.3333 0.5000 0.0833  plane waves:    2384
 k-point  42 :  -0.4167-0.4167 0.0833  plane waves:    2386
 k-point  43 :  -0.3333-0.4167 0.0833  plane waves:    2380
 k-point  44 :   0.1667 0.1667 0.1667  plane waves:    2358
 k-point  45 :   0.2500 0.1667 0.1667  plane waves:    2381
 k-point  46 :   0.3333 0.1667 0.1667  plane waves:    2374
 k-point  47 :  -0.1667 0.1667 0.1667  plane waves:    2379
 k-point  48 :   0.2500 0.2500 0.1667  plane waves:    2366
 k-point  49 :  -0.2500 0.2500 0.1667  plane waves:    2373
 k-point  50 :  -0.3333 0.3333 0.1667  plane waves:    2380
 k-point  51 :  -0.2500 0.3333 0.1667  plane waves:    2390
 k-point  52 :  -0.4167 0.4167 0.1667  plane waves:    2380
 k-point  53 :  -0.3333 0.4167 0.1667  plane waves:    2389
 k-point  54 :   0.5000 0.5000 0.1667  plane waves:    2394
 k-point  55 :  -0.4167 0.5000 0.1667  plane waves:    2387
 k-point  56 :  -0.3333 0.5000 0.1667  plane waves:    2385
 k-point  57 :  -0.4167-0.4167 0.1667  plane waves:    2383
 k-point  58 :   0.2500 0.2500 0.2500  plane waves:    2388
 k-point  59 :  -0.2500 0.2500 0.2500  plane waves:    2374
 k-point  60 :  -0.3333 0.3333 0.2500  plane waves:    2389
 k-point  61 :  -0.4167 0.4167 0.2500  plane waves:    2386
 k-point  62 :  -0.3333 0.4167 0.2500  plane waves:    2391
 k-point  63 :   0.5000 0.5000 0.2500  plane waves:    2374
 k-point  64 :  -0.4167 0.5000 0.2500  plane waves:    2389
 k-point  65 :  -0.4167-0.4167 0.2500  plane waves:    2403
 k-point  66 :  -0.3333 0.3333 0.3333  plane waves:    2390
 k-point  67 :  -0.4167 0.4167 0.3333  plane waves:    2387
 k-point  68 :   0.5000 0.5000 0.3333  plane waves:    2394
 k-point  69 :  -0.4167 0.5000 0.3333  plane waves:    2392
 k-point  70 :  -0.4167 0.4167 0.4167  plane waves:    2398
 k-point  71 :   0.5000 0.5000 0.4167  plane waves:    2412
 k-point  72 :   0.5000 0.5000 0.5000  plane waves:    2382

 maximum and minimum number of plane-waves per node :      2412     2347

 maximum number of plane-waves:      2412
 maximum index in each direction: 
   IXMAX=    9   IYMAX=    9   IZMAX=    9
   IXMIN=   -9   IYMIN=   -9   IZMIN=   -9


 serial   3D FFT for wavefunctions
 parallel 3D FFT for charge:
    minimum data exchange during FFTs selected (reduces bandwidth)


 total amount of memory used by VASP MPI-rank0    49391. kBytes
=======================================================================

   base      :      30000. kBytes
   nonlr-proj:       9839. kBytes
   fftplans  :        737. kBytes
   grid      :       2775. kBytes
   one-center:        124. kBytes
   wavefun   :       5916. kBytes
 
     INWAV:  cpu time      0.0000: real time      0.0000
 Broyden mixing: mesh for mixing (old mesh)
   NGX = 19   NGY = 19   NGZ = 19
  (NGX  = 72   NGY  = 72   NGZ  = 72)
  gives a total of   6859 points

 initial charge density was supplied:
 charge density of overlapping atoms calculated
 number of electron      65.0000000 magnetization 
 keeping initial charge density in first step


--------------------------------------------------------------------------------------------------------


 Maximum index for non-local projection operator         7119
 Maximum index for augmentation-charges          798 (set IRDMAX)


--------------------------------------------------------------------------------------------------------


 First call to EWALD:  gamma=   0.390
 Maximum number of real-space cells 3x 3x 3
 Maximum number of reciprocal cells 3x 3x 3

    FEWALD:  cpu time      0.0014: real time      0.0014


--------------------------------------- Iteration      1(   1)  ---------------------------------------


    POTLOK:  cpu time      0.0557: real time      0.0565
    SETDIJ:  cpu time      0.0045: real time      0.0045
     EDDAV:  cpu time      2.8612: real time      2.8805
       DOS:  cpu time      0.0027: real time      0.0279
    --------------------------------------------
      LOOP:  cpu time      2.9242: real time      2.9694

 eigenvalue-minimisations  :  6912
 total energy-change (2. order) : 0.3684255E+03  (-0.2788912E+04)
 number of electron      65.0000000 magnetization 
 augmentation part       65.0000000 magnetization 

 Free energy of the ion-electron system (eV)
  ---------------------------------------------------
  alpha Z        PSCENC =       452.49678218
  Ewald energy   TEWEN  =     -4840.92237976
  -Hartree energ DENC   =      -959.17816412
  -exchange      EXHF   =         0.00000000
  -V(xc)+E(xc)   XCENC  =        43.28285333
  PAW double counting   =      4604.93225352    -4711.87889178
  entropy T*S    EENTRO =        -0.00218188
  eigenvalues    EBANDS =       806.14231269
  atomic energy  EATOM  =      4973.55287360
  Solvation  Ediel_sol  =         0.00000000
  ---------------------------------------------------
  free energy    TOTEN  =       368.42545777 eV

  energy without entropy =      368.42763965  energy(sigma->0) =      368.42618507


--------------------------------------------------------------------------------------------------------




--------------------------------------- Iteration      1(   2)  ---------------------------------------


     EDDAV:  cpu time      5.6747: real time      5.7077
       DOS:  cpu time      0.0011: real time      0.0011
    --------------------------------------------
      LOOP:  cpu time      5.6758: real time      5.7088

 eigenvalue-minimisations  :  6912
 total energy-change (2. order) :-0.4256581E+03  (-0.4119281E+03)
 number of electron      65.0000000 magnetization 
 augmentation part       65.0000000 magnetization 

 Free energy of the ion-electron system (eV)
  ---------------------------------------------------
  alpha Z        PSCENC =       452.49678218
  Ewald energy   TEWEN  =     -4840.92237976
  -Hartree energ DENC   =      -959.17816412
  -exchange      EXHF   =         0.00000000
  -V(xc)+E(xc)   XCENC  =        43.28285333
  PAW double counting   =      4604.93225352    -4711.87889178
  entropy T*S    EENTRO =        -0.00055601
  eigenvalues    EBANDS =       380.48261116
  atomic energy  EATOM  =      4973.55287360
  Solvation  Ediel_sol  =         0.00000000
  ---------------------------------------------------
  free energy    TOTEN  =       -57.23261789 eV

  energy without entropy =      -57.23206188  energy(sigma->0) =      -57.23243255


--------------------------------------------------------------------------------------------------------




--------------------------------------- Iteration      1(   3)  ---------------------------------------


     EDDAV:  cpu time      4.4015: real time      4.4309
       DOS:  cpu time      0.0013: real time      0.0013
    --------------------------------------------
      LOOP:  cpu time      4.4028: real time      4.4323

 eigenvalue-minimisations  :  8760
 total energy-change (2. order) :-0.1459283E+02  (-0.1405074E+02)
 number of electron      65.0000000 magnetization 
 augmentation part       65.0000000 magnetization 

 Free energy of the ion-electron system (eV)
  ---------------------------------------------------
  alpha Z        PSCENC =       452.49678218
  Ewald energy   TEWEN  =     -4840.92237976
  -Hartree energ DENC   =      -959.17816412
  -exchange      EXHF   =         0.00000000
  -V(xc)+E(xc)   XCENC  =        43.28285333
  PAW double counting   =      4604.93225352    -4711.87889178
  entropy T*S    EENTRO =         0.00288870
  eigenvalues    EBANDS =       365.88633355
  atomic energy  EATOM  =      4973.55287360
  Solvation  Ediel_sol  =         0.00000000
  ---------------------------------------------------
  free energy    TOTEN  =       -71.82545078 eV

  energy without entropy =      -71.82833948  energy(sigma->0) =      -71.82641368


--------------------------------------------------------------------------------------------------------




--------------------------------------- Iteration      1(   4)  ---------------------------------------


     EDDAV:  cpu time      3.9512: real time      3.9837
       DOS:  cpu time      0.0013: real time      0.0014
    --------------------------------------------
      LOOP:  cpu time      3.9526: real time      3.9850

 eigenvalue-minimisations  :  7248
 total energy-change (2. order) :-0.3184363E+00  (-0.3162264E+00)
 number of electron      65.0000000 magnetization 
 augmentation part       65.0000000 magnetization 

 Free energy of the ion-electron system (eV)
  ---------------------------------------------------
  alpha Z        PSCENC =       452.49678218
  Ewald energy   TEWEN  =     -4840.92237976
  -Hartree energ DENC   =      -959.17816412
  -exchange      EXHF   =         0.00000000
  -V(xc)+E(xc)   XCENC  =        43.28285333
  PAW double counting   =      4604.93225352    -4711.87889178
  entropy T*S    EENTRO =         0.00298134
  eigenvalues    EBANDS =       365.56780458
  atomic energy  EATOM  =      4973.55287360
  Solvation  Ediel_sol  =         0.00000000
  ---------------------------------------------------
  free energy    TOTEN  =       -72.14388711 eV

  energy without entropy =      -72.14686845  energy(sigma->0) =      -72.14488089


--------------------------------------------------------------------------------------------------------




--------------------------------------- Iteration      1(   5)  ---------------------------------------


     EDDAV:  cpu time      4.5317: real time      4.5631
       DOS:  cpu time      0.0012: real time      0.0012
    CHARGE:  cpu time      0.0584: real time      0.0589
    MIXING:  cpu time      0.0013: real time      0.0015
    --------------------------------------------
      LOOP:  cpu time      4.5927: real time      4.6248

 eigenvalue-minimisations  :  8880
 total energy-change (2. order) :-0.6160317E-02  (-0.6159190E-02)
 number of electron      64.9999999 magnetization 
 augmentation part       29.4422002 magnetization 

 Broyden mixing:
  rms(total) = 0.30187E+01    rms(broyden)= 0.30187E+01
  rms(prec ) = 0.58148E+01
  weight for this iteration     100.00

 Free energy of the ion-electron system (eV)
  ---------------------------------------------------
  alpha Z        PSCENC =       452.49678218
  Ewald energy   TEWEN  =     -4840.92237976
  -Hartree energ DENC   =      -959.17816412
  -exchange      EXHF   =         0.00000000
  -V(xc)+E(xc)   XCENC  =        43.28285333
  PAW double counting   =      4604.93225352    -4711.87889178
  entropy T*S    EENTRO =         0.00296171
  eigenvalues    EBANDS =       365.56166390
  atomic energy  EATOM  =      4973.55287360
  Solvation  Ediel_sol  =         0.00000000
  ---------------------------------------------------
  free energy    TOTEN  =       -72.15004743 eV

  energy without entropy =      -72.15300914  energy(sigma->0) =      -72.15103466


--------------------------------------------------------------------------------------------------------




--------------------------------------- Iteration      1(   6)  ---------------------------------------


    POTLOK:  cpu time      0.0115: real time      0.0118
    SETDIJ:  cpu time      0.0028: real time      0.0028
     EDDAV:  cpu time      3.6266: real time      3.6688
       DOS:  cpu time      0.0013: real time      0.0013
    CHARGE:  cpu time      0.0565: real time      0.0569
    MIXING:  cpu time      0.0264: real time      0.0267
    --------------------------------------------
      LOOP:  cpu time      3.7251: real time      3.7683

 eigenvalue-minimisations  :  8160
 total energy-change (2. order) : 0.6233114E+01  (-0.1365096E+01)
 number of electron      65.0000000 magnetization 
 augmentation part       30.8910498 magnetization 

 Broyden mixing:
  rms(total) = 0.24775E+01    rms(broyden)= 0.24775E+01
  rms(prec ) = 0.57927E+01
  weight for this iteration     100.00

 eigenvalues of (default mixing * dielectric matrix)
  average eigenvalue GAMMA=   0.8284
  0.8284

 Free energy of the ion-electron system (eV)
  ---------------------------------------------------
  alpha Z        PSCENC =       452.49678218
  Ewald energy   TEWEN  =     -4840.92237976
  -Hartree energ DENC   =      -918.48706029
  -exchange      EXHF   =         0.00000000
  -V(xc)+E(xc)   XCENC  =        41.27522281
  PAW double counting   =      4684.58763957    -4785.92100835
  entropy T*S    EENTRO =         0.01128740
  eigenvalues    EBANDS =       327.48970970
  atomic energy  EATOM  =      4973.55287360
  Solvation  Ediel_sol  =         0.00000000
  ---------------------------------------------------
  free energy    TOTEN  =       -65.91693313 eV

  energy without entropy =      -65.92822053  energy(sigma->0) =      -65.92069560


--------------------------------------------------------------------------------------------------------




--------------------------------------- Iteration      1(   7)  ---------------------------------------


    POTLOK:  cpu time      0.4872: real time      0.4899
    SETDIJ:  cpu time      0.1292: real time      0.1298
     EDDAV:  cpu time      3.9657: real time      3.9927
       DOS:  cpu time      0.0012: real time      0.0012
    CHARGE:  cpu time      0.0554: real time      0.0557
    MIXING:  cpu time      0.0005: real time      0.0006
    --------------------------------------------
      LOOP:  cpu time      4.6392: real time      4.6700

 eigenvalue-minimisations  :  7968
 total energy-change (2. order) : 0.7688538E+00  (-0.4029095E+01)
 number of electron      64.9999999 magnetization 
 augmentation part       31.5268554 magnetization 

 Broyden mixing:
  rms(total) = 0.22825E+01    rms(broyden)= 0.22824E+01
  rms(prec ) = 0.53161E+01
  weight for this iteration     100.00

 eigenvalues of (default mixing * dielectric matrix)
  average eigenvalue GAMMA=   1.6103
  2.9762  0.2445

 Free energy of the ion-electron system (eV)
  ---------------------------------------------------
  alpha Z        PSCENC =       452.49678218
  Ewald energy   TEWEN  =     -4840.92237976
  -Hartree energ DENC   =      -902.83654667
  -exchange      EXHF   =         0.00000000
  -V(xc)+E(xc)   XCENC  =        40.53387517
  PAW double counting   =      4718.94446068    -4817.68561400
  entropy T*S    EENTRO =         0.00344770
  eigenvalues    EBANDS =       310.76502178
  atomic energy  EATOM  =      4973.55287360
  Solvation  Ediel_sol  =         0.00000000
  ---------------------------------------------------
  free energy    TOTEN  =       -65.14807932 eV

  energy without entropy =      -65.15152701  energy(sigma->0) =      -65.14922855


--------------------------------------------------------------------------------------------------------




--------------------------------------- Iteration      1(   8)  ---------------------------------------


    POTLOK:  cpu time      0.0079: real time      0.0081
    SETDIJ:  cpu time      0.0024: real time      0.0024
     EDDAV:  cpu time      2.8627: real time      2.8838
       DOS:  cpu time      0.0015: real time      0.0015
    CHARGE:  cpu time      0.0566: real time      0.0570
    MIXING:  cpu time      0.0005: real time      0.0005
    --------------------------------------------
      LOOP:  cpu time      2.9316: real time      2.9533

 eigenvalue-minimisations  :  7032
 total energy-change (2. order) : 0.3915756E+01  (-0.2337972E+01)
 number of electron      64.9999999 magnetization 
 augmentation part       34.5728949 magnetization 

 Broyden mixing:
  rms(total) = 0.13544E+01    rms(broyden)= 0.13544E+01
  rms(prec ) = 0.33746E+01
  weight for this iteration     100.00

 eigenvalues of (default mixing * dielectric matrix)
  average eigenvalue GAMMA=   1.1987
  3.0459  0.2752  0.2752

 Free energy of the ion-electron system (eV)
  ---------------------------------------------------
  alpha Z        PSCENC =       452.49678218
  Ewald energy   TEWEN  =     -4840.92237976
  -Hartree energ DENC   =      -832.56373086
  -exchange      EXHF   =         0.00000000
  -V(xc)+E(xc)   XCENC  =        37.15991363
  PAW double counting   =      4929.27897498    -5020.26111120
  entropy T*S    EENTRO =        -0.00165303
  eigenvalues    EBANDS =       240.02800704
  atomic energy  EATOM  =      4973.55287360
  Solvation  Ediel_sol  =         0.00000000
  ---------------------------------------------------
  free energy    TOTEN  =       -61.23232343 eV

  energy without entropy =      -61.23067040  energy(sigma->0) =      -61.23177242


--------------------------------------------------------------------------------------------------------




--------------------------------------- Iteration      1(   9)  ---------------------------------------


    POTLOK:  cpu time      0.0083: real time      0.0085
    SETDIJ:  cpu time      0.0026: real time      0.0026
     EDDAV:  cpu time      3.8481: real time      3.8794
       DOS:  cpu time      0.0015: real time      0.0015
    CHARGE:  cpu time      0.0567: real time      0.0571
    MIXING:  cpu time      0.0006: real time      0.0006
    --------------------------------------------
      LOOP:  cpu time      3.9178: real time      3.9498

 eigenvalue-minimisations  :  8712
 total energy-change (2. order) : 0.3898867E+00  (-0.8721419E-01)
 number of electron      64.9999999 magnetization 
 augmentation part       34.5537012 magnetization 

 Broyden mixing:
  rms(total) = 0.11181E+01    rms(broyden)= 0.11181E+01
  rms(prec ) = 0.28568E+01
  weight for this iteration     100.00

 eigenvalues of (default mixing * dielectric matrix)
  average eigenvalue GAMMA=   1.0554
  3.1106  0.2448  0.4332  0.4332

 Free energy of the ion-electron system (eV)
  ---------------------------------------------------
  alpha Z        PSCENC =       452.49678218
  Ewald energy   TEWEN  =     -4840.92237976
  -Hartree energ DENC   =      -832.53557510
  -exchange      EXHF   =         0.00000000
  -V(xc)+E(xc)   XCENC  =        37.16762581
  PAW double counting   =      4951.79590706    -5043.62205038
  entropy T*S    EENTRO =        -0.00582189
  eigenvalues    EBANDS =       241.23020180
  atomic energy  EATOM  =      4973.55287360
  Solvation  Ediel_sol  =         0.00000000
  ---------------------------------------------------
  free energy    TOTEN  =       -60.84243669 eV

  energy without entropy =      -60.83661479  energy(sigma->0) =      -60.84049606


--------------------------------------------------------------------------------------------------------




--------------------------------------- Iteration      1(  10)  ---------------------------------------


    POTLOK:  cpu time      0.0079: real time      0.0081
    SETDIJ:  cpu time      0.0025: real time      0.0025
     EDDAV:  cpu time      4.5950: real time      4.6275
       DOS:  cpu time      0.0015: real time      0.0015
    CHARGE:  cpu time      0.0563: real time      0.0567
    MIXING:  cpu time      0.0006: real time      0.0006
    --------------------------------------------
      LOOP:  cpu time      4.6638: real time      4.6969

 eigenvalue-minimisations  : 10704
 total energy-change (2. order) : 0.3892578E+00  (-0.4408146E-01)
 number of electron      64.9999999 magnetization 
 augmentation part       34.4455416 magnetization 

 Broyden mixing:
  rms(total) = 0.75020E+00    rms(broyden)= 0.75020E+00
  rms(prec ) = 0.17899E+01
  weight for this iteration     100.00

 eigenvalues of (default mixing * dielectric matrix)
  average eigenvalue GAMMA=   1.2807
  3.2841  1.2857  1.2857  0.2503  0.2976

 Free energy of the ion-electron system (eV)
  ---------------------------------------------------
  alpha Z        PSCENC =       452.49678218
  Ewald energy   TEWEN  =     -4840.92237976
  -Hartree energ DENC   =      -833.96916742
  -exchange      EXHF   =         0.00000000
  -V(xc)+E(xc)   XCENC  =        37.24959818
  PAW double counting   =      4982.91087792    -5076.22796982
  entropy T*S    EENTRO =        -0.00664900
  eigenvalues    EBANDS =       244.46285524
  atomic energy  EATOM  =      4973.55287360
  Solvation  Ediel_sol  =         0.00000000
  ---------------------------------------------------
  free energy    TOTEN  =       -60.45317889 eV

  energy without entropy =      -60.44652988  energy(sigma->0) =      -60.45096255


--------------------------------------------------------------------------------------------------------




--------------------------------------- Iteration      1(  11)  ---------------------------------------


    POTLOK:  cpu time      0.0221: real time      0.0225
    SETDIJ:  cpu time      0.0026: real time      0.0026
     EDDAV:  cpu time      4.6523: real time      4.6876
       DOS:  cpu time      0.0012: real time      0.0012
    CHARGE:  cpu time      0.0562: real time      0.0566
    MIXING:  cpu time      0.0006: real time      0.0006
    --------------------------------------------
      LOOP:  cpu time      4.7351: real time      4.7712

 eigenvalue-minimisations  : 10824
 total energy-change (2. order) : 0.1814880E+00  (-0.3413973E-01)
 number of electron      65.0000000 magnetization 
 augmentation part       34.4086529 magnetization 

 Broyden mixing:
  rms(total) = 0.43966E+00    rms(broyden)= 0.43966E+00
  rms(prec ) = 0.83635E+00
  weight for this iteration     100.00

 eigenvalues of (default mixing * dielectric matrix)
  average eigenvalue GAMMA=   1.9816
  6.5194  2.1434  1.7978  0.8836  0.2488  0.2967

 Free energy of the ion-electron system (eV)
  ---------------------------------------------------
  alpha Z        PSCENC =       452.49678218
  Ewald energy   TEWEN  =     -4840.92237976
  -Hartree energ DENC   =      -831.39380282
  -exchange      EXHF   =         0.00000000
  -V(xc)+E(xc)   XCENC  =        37.16426792
  PAW double counting   =      5084.80768738    -5181.09678035
  entropy T*S    EENTRO =         0.00137090
  eigenvalues    EBANDS =       245.11829002
  atomic energy  EATOM  =      4973.55287360
  Solvation  Ediel_sol  =         0.00000000
  ---------------------------------------------------
  free energy    TOTEN  =       -60.27169093 eV

  energy without entropy =      -60.27306183  energy(sigma->0) =      -60.27214789


--------------------------------------------------------------------------------------------------------




--------------------------------------- Iteration      1(  12)  ---------------------------------------


    POTLOK:  cpu time      0.0082: real time      0.0085
    SETDIJ:  cpu time      0.0025: real time      0.0026
     EDDAV:  cpu time      3.4214: real time      3.4448
       DOS:  cpu time      0.0013: real time      0.0013
    CHARGE:  cpu time      0.0561: real time      0.0564
    MIXING:  cpu time      0.0007: real time      0.0007
    --------------------------------------------
      LOOP:  cpu time      3.4901: real time      3.5142

 eigenvalue-minimisations  :  7536
 total energy-change (2. order) : 0.6104538E-01  (-0.1440814E-01)
 number of electron      64.9999999 magnetization 
 augmentation part       34.3290517 magnetization 

 Broyden mixing:
  rms(total) = 0.44483E+00    rms(broyden)= 0.44483E+00
  rms(prec ) = 0.11828E+01
  weight for this iteration     100.00

 eigenvalues of (default mixing * dielectric matrix)
  average eigenvalue GAMMA=   2.2871
  9.6590  2.7182  1.1040  1.1040  0.8796  0.2962  0.2489

 Free energy of the ion-electron system (eV)
  ---------------------------------------------------
  alpha Z        PSCENC =       452.49678218
  Ewald energy   TEWEN  =     -4840.92237976
  -Hartree energ DENC   =      -824.87044789
  -exchange      EXHF   =         0.00000000
  -V(xc)+E(xc)   XCENC  =        36.97733140
  PAW double counting   =      5386.13730606    -5490.88351710
  entropy T*S    EENTRO =        -0.00232789
  eigenvalues    EBANDS =       247.30373385
  atomic energy  EATOM  =      4973.55287360
  Solvation  Ediel_sol  =         0.00000000
  ---------------------------------------------------
  free energy    TOTEN  =       -60.21064554 eV

  energy without entropy =      -60.20831765  energy(sigma->0) =      -60.20986958


--------------------------------------------------------------------------------------------------------




--------------------------------------- Iteration      1(  13)  ---------------------------------------


    POTLOK:  cpu time      0.0080: real time      0.0083
    SETDIJ:  cpu time      0.0025: real time      0.0025
     EDDAV:  cpu time      3.7776: real time      3.8051
       DOS:  cpu time      0.0013: real time      0.0013
    CHARGE:  cpu time      0.0570: real time      0.0573
    MIXING:  cpu time      0.0006: real time      0.0006
    --------------------------------------------
      LOOP:  cpu time      3.8469: real time      3.8750

 eigenvalue-minimisations  :  8544
 total energy-change (2. order) : 0.6799962E-01  (-0.9076161E-01)
 number of electron      65.0000000 magnetization 
 augmentation part       34.1279615 magnetization 

 Broyden mixing:
  rms(total) = 0.25740E+00    rms(broyden)= 0.25739E+00
  rms(prec ) = 0.73764E+00
  weight for this iteration     100.00

 eigenvalues of (default mixing * dielectric matrix)
  average eigenvalue GAMMA=   2.2100
  9.8366  2.7908  1.4348  1.4348  0.2489  0.2960  0.8833  0.7550

 Free energy of the ion-electron system (eV)
  ---------------------------------------------------
  alpha Z        PSCENC =       452.49678218
  Ewald energy   TEWEN  =     -4840.92237976
  -Hartree energ DENC   =      -824.27561726
  -exchange      EXHF   =         0.00000000
  -V(xc)+E(xc)   XCENC  =        37.01831540
  PAW double counting   =      5555.69060246    -5665.83602290
  entropy T*S    EENTRO =         0.00582525
  eigenvalues    EBANDS =       252.12697511
  atomic energy  EATOM  =      4973.55287360
  Solvation  Ediel_sol  =         0.00000000
  ---------------------------------------------------
  free energy    TOTEN  =       -60.14264593 eV

  energy without entropy =      -60.14847117  energy(sigma->0) =      -60.14458767


--------------------------------------------------------------------------------------------------------




--------------------------------------- Iteration      1(  14)  ---------------------------------------


    POTLOK:  cpu time      0.0079: real time      0.0081
    SETDIJ:  cpu time      0.0025: real time      0.0025
     EDDAV:  cpu time      3.0652: real time      3.0891
       DOS:  cpu time      0.0012: real time      0.0012
    CHARGE:  cpu time      0.0558: real time      0.0561
    MIXING:  cpu time      0.0006: real time      0.0006
    --------------------------------------------
      LOOP:  cpu time      3.1332: real time      3.1576

 eigenvalue-minimisations  :  7536
 total energy-change (2. order) : 0.1734366E-01  (-0.1848406E-01)
 number of electron      65.0000000 magnetization 
 augmentation part       34.0999750 magnetization 

 Broyden mixing:
  rms(total) = 0.46702E-01    rms(broyden)= 0.46685E-01
  rms(prec ) = 0.65183E-01
  weight for this iteration     100.00

 eigenvalues of (default mixing * dielectric matrix)
  average eigenvalue GAMMA=   2.0053
  9.6884  2.7749  1.5233  1.5233  0.8319  0.8319  0.2489  0.2960  0.3288

 Free energy of the ion-electron system (eV)
  ---------------------------------------------------
  alpha Z        PSCENC =       452.49678218
  Ewald energy   TEWEN  =     -4840.92237976
  -Hartree energ DENC   =      -824.07514649
  -exchange      EXHF   =         0.00000000
  -V(xc)+E(xc)   XCENC  =        37.01831308
  PAW double counting   =      5577.90283840    -5688.60769383
  entropy T*S    EENTRO =         0.00184052
  eigenvalues    EBANDS =       252.50727004
  atomic energy  EATOM  =      4973.55287360
  Solvation  Ediel_sol  =         0.00000000
  ---------------------------------------------------
  free energy    TOTEN  =       -60.12530227 eV

  energy without entropy =      -60.12714279  energy(sigma->0) =      -60.12591577


--------------------------------------------------------------------------------------------------------




--------------------------------------- Iteration      1(  15)  ---------------------------------------


    POTLOK:  cpu time      0.0075: real time      0.0077
    SETDIJ:  cpu time      0.0025: real time      0.0025
     EDDAV:  cpu time      3.3314: real time      3.3532
       DOS:  cpu time      0.0013: real time      0.0013
    CHARGE:  cpu time      0.0570: real time      0.0573
    MIXING:  cpu time      0.0008: real time      0.0008
    --------------------------------------------
      LOOP:  cpu time      3.4003: real time      3.4227

 eigenvalue-minimisations  :  7776
 total energy-change (2. order) : 0.2127341E-02  (-0.7694247E-03)
 number of electron      65.0000000 magnetization 
 augmentation part       34.1109167 magnetization 

 Broyden mixing:
  rms(total) = 0.45790E-01    rms(broyden)= 0.45789E-01
  rms(prec ) = 0.10643E+00
  weight for this iteration     100.00

 eigenvalues of (default mixing * dielectric matrix)
  average eigenvalue GAMMA=   2.0676
  9.2886  2.5024  2.3459  2.3459  1.0859  1.0859  0.9190  0.2489  0.2960  0.5570

 Free energy of the ion-electron system (eV)
  ---------------------------------------------------
  alpha Z        PSCENC =       452.49678218
  Ewald energy   TEWEN  =     -4840.92237976
  -Hartree energ DENC   =      -823.91417854
  -exchange      EXHF   =         0.00000000
  -V(xc)+E(xc)   XCENC  =        37.00736751
  PAW double counting   =      5572.02343014    -5682.46503184
  entropy T*S    EENTRO =         0.00249858
  eigenvalues    EBANDS =       252.09546320
  atomic energy  EATOM  =      4973.55287360
  Solvation  Ediel_sol  =         0.00000000
  ---------------------------------------------------
  free energy    TOTEN  =       -60.12317493 eV

  energy without entropy =      -60.12567351  energy(sigma->0) =      -60.12400779


--------------------------------------------------------------------------------------------------------




--------------------------------------- Iteration      1(  16)  ---------------------------------------


    POTLOK:  cpu time      0.0078: real time      0.0081
    SETDIJ:  cpu time      0.0025: real time      0.0025
     EDDAV:  cpu time      3.3279: real time      3.3501
       DOS:  cpu time      0.0015: real time      0.0044
    CHARGE:  cpu time      0.0562: real time      0.0565
    MIXING:  cpu time      0.0007: real time      0.0007
    --------------------------------------------
      LOOP:  cpu time      3.3968: real time      3.4224

 eigenvalue-minimisations  :  7320
 total energy-change (2. order) : 0.8695838E-04  (-0.2113030E-03)
 number of electron      65.0000000 magnetization 
 augmentation part       34.1361918 magnetization 

 Broyden mixing:
  rms(total) = 0.47109E-01    rms(broyden)= 0.47108E-01
  rms(prec ) = 0.12772E+00
  weight for this iteration     100.00

 eigenvalues of (default mixing * dielectric matrix)
  average eigenvalue GAMMA=   2.4103
 10.3017  6.4770  2.5831  2.0094  0.2489  0.2960  1.1588  1.1588  0.9579  0.7631
  0.5589

 Free energy of the ion-electron system (eV)
  ---------------------------------------------------
  alpha Z        PSCENC =       452.49678218
  Ewald energy   TEWEN  =     -4840.92237976
  -Hartree energ DENC   =      -823.54229811
  -exchange      EXHF   =         0.00000000
  -V(xc)+E(xc)   XCENC  =        36.98703391
  PAW double counting   =      5570.06847012    -5680.23685430
  entropy T*S    EENTRO =         0.00255955
  eigenvalues    EBANDS =       251.47072484
  atomic energy  EATOM  =      4973.55287360
  Solvation  Ediel_sol  =         0.00000000
  ---------------------------------------------------
  free energy    TOTEN  =       -60.12308797 eV

  energy without entropy =      -60.12564752  energy(sigma->0) =      -60.12394115


--------------------------------------------------------------------------------------------------------




--------------------------------------- Iteration      1(  17)  ---------------------------------------


    POTLOK:  cpu time      0.0077: real time      0.0096
    SETDIJ:  cpu time      0.0025: real time      0.0025
     EDDAV:  cpu time      4.7004: real time      4.7349
       DOS:  cpu time      0.0013: real time      0.0013
[...]
     27       5.1647      2.00000
     28       5.1917      2.00000
     29       5.2298      2.00000
     30       5.2863      2.00000
     31       5.3434      2.00000
     32       5.8889      2.05971
     33       6.0292      0.44633
     34       6.0500      0.19954
     35       6.0698      0.04473
     36       6.0849     -0.02496
     37       6.1458     -0.05392
     38       6.1803     -0.02446
     39       6.2055     -0.01091
     40       6.2221     -0.00588
     41       6.3942     -0.00000
     42       6.7106     -0.00000
     43       6.9880     -0.00000
     44       7.1053     -0.00000
     45       7.4542     -0.00000
     46       8.4726     -0.00000
     47      12.1397      0.00000
     48      12.1405      0.00000

 k-point    68 :       0.5000    0.5000    0.3333
  band No.  band energies     occupation 
      1       0.8582      2.00000
      2       0.8967      2.00000
      3       1.7997      2.00000
      4       1.8218      2.00000
      5       2.3290      2.00000
      6       2.3450      2.00000
      7       3.1435      2.00000
      8       3.1504      2.00000
      9       3.3756      2.00000
     10       3.3994      2.00000
     11       3.4477      2.00000
     12       3.4525      2.00000
     13       3.6191      2.00000
     14       3.6379      2.00000
     15       3.7940      2.00000
     16       3.8267      2.00000
     17       4.2431      2.00000
     18       4.2740      2.00000
     19       4.4123      2.00000
     20       4.4557      2.00000
     21       4.5381      2.00000
     22       4.5515      2.00000
     23       4.8623      2.00000
     24       4.9109      2.00000
     25       4.9393      2.00000
     26       4.9588      2.00000
     27       5.0537      2.00000
     28       5.0933      2.00000
     29       5.1701      2.00000
     30       5.2326      2.00000
     31       5.5200      2.00000
     32       5.5739      2.00000
     33       5.9639      1.48879
     34       6.0193      0.59024
     35       6.0555      0.14917
     36       6.0817     -0.01365
     37       6.1320     -0.06515
     38       6.1729     -0.02993
     39       6.1998     -0.01331
     40       6.2163     -0.00737
     41       6.5007     -0.00000
     42       6.5332     -0.00000
     43       6.9903     -0.00000
     44       7.1081     -0.00000
     45       7.9085     -0.00000
     46       7.9110     -0.00000
     47      12.2907      0.00000
     48      12.2926      0.00000

 k-point    69 :      -0.4167    0.5000    0.3333
  band No.  band energies     occupation 
      1       0.8351      2.00000
      2       1.3357      2.00000
      3       1.3733      2.00000
      4       2.0880      2.00000
      5       2.1176      2.00000
      6       2.3184      2.00000
      7       3.1436      2.00000
      8       3.2824      2.00000
      9       3.2847      2.00000
     10       3.4280      2.00000
     11       3.4524      2.00000
     12       3.5901      2.00000
     13       3.6193      2.00000
     14       3.6569      2.00000
     15       3.6576      2.00000
     16       4.0512      2.00000
     17       4.0634      2.00000
     18       4.3145      2.00000
     19       4.4785      2.00000
     20       4.5376      2.00000
     21       4.5651      2.00000
     22       4.7198      2.00000
     23       4.7269      2.00000
     24       4.8151      2.00000
     25       4.9314      2.00000
     26       4.9616      2.00000
     27       5.0212      2.00000
     28       5.1030      2.00000
     29       5.1159      2.00000
     30       5.1995      2.00000
     31       5.4488      2.00000
     32       5.7347      2.00150
     33       5.7609      2.00472
     34       6.0003      0.89729
     35       6.0560      0.14467
     36       6.0598      0.11356
     37       6.0795     -0.00465
     38       6.0809     -0.01039
     39       6.1992     -0.01359
     40       6.2151     -0.00771
     41       6.5219     -0.00000
     42       6.7010     -0.00000
     43       6.7298     -0.00000
     44       7.4132     -0.00000
     45       7.4150     -0.00000
     46       7.8694     -0.00000
     47      12.2791      0.00000
     48      13.1526      0.00000

 k-point    70 :      -0.4167    0.4167    0.4167
  band No.  band energies     occupation 
      1       0.7918      2.00000
      2       1.7012      2.00000
      3       1.7577      2.00000
      4       1.7577      2.00000
      5       1.7718      2.00000
      6       2.2918      2.00000
      7       3.2652      2.00000
      8       3.2795      2.00000
      9       3.2795      2.00000
     10       3.2851      2.00000
     11       3.4641      2.00000
     12       3.6346      2.00000
     13       3.6346      2.00000
     14       3.8651      2.00000
     15       3.8755      2.00000
     16       3.9161      2.00000
     17       3.9161      2.00000
     18       4.4716      2.00000
     19       4.5621      2.00000
     20       4.6301      2.00000
     21       4.6301      2.00000
     22       4.6466      2.00000
     23       4.6689      2.00000
     24       4.6689      2.00000
     25       4.9659      2.00000
     26       4.9659      2.00000
     27       5.0331      2.00000
     28       5.0454      2.00000
     29       5.1679      2.00000
     30       5.1679      2.00000
     31       5.3100      2.00000
     32       5.8170      2.03101
     33       5.8170      2.03101
     34       5.8727      2.07089
     35       5.8987      2.03963
     36       5.9461      1.71946
     37       6.0655      0.07134
     38       6.0792     -0.00337
     39       6.2031     -0.01191
     40       6.2230     -0.00567
     41       6.5281     -0.00000
     42       6.9142     -0.00000
     43       6.9480     -0.00000
     44       7.0573     -0.00000
     45       7.0573     -0.00000
     46       7.8221     -0.00000
     47      13.0778      0.00000
     48      13.0778      0.00000

 k-point    71 :       0.5000    0.5000    0.4167
  band No.  band energies     occupation 
      1       1.2601      2.00000
      2       1.3010      2.00000
      3       1.7103      2.00000
      4       1.7310      2.00000
      5       2.0420      2.00000
      6       2.0662      2.00000
      7       3.2737      2.00000
      8       3.2788      2.00000
      9       3.3850      2.00000
     10       3.4114      2.00000
     11       3.5178      2.00000
     12       3.5261      2.00000
     13       3.6980      2.00000
     14       3.6987      2.00000
     15       3.8932      2.00000
     16       3.9443      2.00000
     17       4.1703      2.00000
     18       4.1871      2.00000
     19       4.6326      2.00000
     20       4.6794      2.00000
     21       4.7421      2.00000
     22       4.7437      2.00000
     23       4.7966      2.00000
     24       4.8308      2.00000
     25       4.8430      2.00000
     26       4.9485      2.00000
     27       4.9501      2.00000
     28       4.9600      2.00000
     29       5.0097      2.00000
     30       5.0558      2.00000
     31       5.5152      2.00000
     32       5.5496      2.00000
     33       5.7112      2.00047
     34       5.7963      2.01710
     35       5.8450      2.05598
     36       5.8708      2.07089
     37       6.0740      0.02142
     38       6.0780      0.00207
     39       6.2161     -0.00740
     40       6.2218     -0.00594
     41       6.6917     -0.00000
     42       6.7193     -0.00000
     43       6.9217     -0.00000
     44       7.0480     -0.00000
     45       7.3480     -0.00000
     46       7.3553     -0.00000
     47      13.4504      0.00000
     48      13.4519      0.00000

 k-point    72 :       0.5000    0.5000    0.5000
  band No.  band energies     occupation 
      1       1.6106      2.00000
      2       1.6998      2.00000
      3       1.6998      2.00000
      4       1.6998      2.00000
      5       1.7136      2.00000
      6       1.7136      2.00000
      7       3.3888      2.00000
      8       3.3888      2.00000
      9       3.3888      2.00000
     10       3.4162      2.00000
     11       3.4162      2.00000
     12       3.4162      2.00000
     13       3.9294      2.00000
     14       3.9294      2.00000
     15       3.9461      2.00000
     16       3.9964      2.00000
     17       3.9964      2.00000
     18       3.9964      2.00000
     19       4.7505      2.00000
     20       4.7505      2.00000
     21       4.7505      2.00000
     22       4.8714      2.00000
     23       4.8714      2.00000
     24       4.8714      2.00000
     25       4.9036      2.00000
     26       4.9036      2.00000
     27       4.9036      2.00000
     28       4.9102      2.00000
     29       4.9102      2.00000
     30       4.9102      2.00000
     31       5.5682      2.00000
     32       5.5682      2.00000
     33       5.5682      2.00000
     34       5.6748      2.00006
     35       5.6748      2.00006
     36       5.6989      2.00024
     37       6.0794     -0.00427
     38       6.0794     -0.00427
     39       6.2254     -0.00515
     40       6.2254     -0.00515
     41       6.8841     -0.00000
     42       6.8841     -0.00000
     43       6.9435     -0.00000
     44       7.0350     -0.00000
     45       7.0350     -0.00000
     46       7.0350     -0.00000
     47      14.6180      0.00000
     48      14.6180      0.00000


--------------------------------------------------------------------------------------------------------


 soft charge-density along one line, spin component           1
         0         1         2         3         4         5         6         7         8         9
 total charge-density along one line
 
 pseudopotential strength for first ion, spin component:           1
 -4.960  -0.000  -0.000  -0.000   0.000  -5.510  -0.000  -0.000
 -0.000  -4.965   0.000  -0.000  -0.000  -0.000  -5.514   0.000
 -0.000   0.000  -4.985   0.000  -0.002  -0.000   0.000  -5.533
 -0.000  -0.000   0.000  -4.960   0.000  -0.000  -0.000   0.000
  0.000  -0.000  -0.002   0.000  -4.983   0.000  -0.000  -0.002
 -5.510  -0.000  -0.000  -0.000   0.000  -6.017  -0.000  -0.000
 -0.000  -5.514   0.000  -0.000  -0.000  -0.000  -6.022   0.000
 -0.000   0.000  -5.533   0.000  -0.002  -0.000   0.000  -6.040
 -0.000  -0.000   0.000  -5.510   0.000  -0.000  -0.000   0.000
  0.000  -0.000  -0.002   0.000  -5.532   0.000  -0.000  -0.002
  0.000   0.000   0.000   0.000  -0.001   0.000   0.000   0.000
  0.000   0.000   0.001   0.000  -0.001   0.000   0.000   0.001
 -0.000  -0.000   0.000  -0.000   0.000  -0.000  -0.000   0.000
 -0.000  -0.000  -0.000  -0.000   0.000  -0.000  -0.000  -0.000
 -0.000  -0.000   0.000  -0.000  -0.000  -0.000  -0.000   0.000
 -0.000  -0.000   0.000  -0.000   0.000  -0.000  -0.000   0.000
 -0.000  -0.000  -0.000  -0.000   0.000  -0.000  -0.000  -0.000
 -0.000  -0.000   0.000  -0.000  -0.000  -0.000  -0.000   0.000
 total augmentation occupancy for first ion, spin component:           1
  1.672   0.000  -0.000  -0.000  -0.000  -0.634  -0.000   0.000   0.000   0.000   0.000  -0.000   0.000   0.000   0.000   0.000
  0.000   1.625  -0.000   0.000   0.000   0.000  -0.613   0.000  -0.000  -0.000   0.000   0.000   0.000   0.000   0.000   0.000
 -0.000  -0.000   2.204   0.000  -0.040   0.000   0.000  -1.190  -0.000   0.029  -0.015  -0.000   0.000   0.000   0.000   0.000
 -0.000   0.000   0.000   1.672  -0.000   0.000   0.000  -0.000  -0.634   0.000   0.000  -0.000   0.000   0.000   0.000   0.000
 -0.000   0.000  -0.040  -0.000   2.250  -0.000  -0.000   0.029   0.000  -1.223   0.026   0.000   0.000   0.000   0.000   0.000
 -0.634   0.000   0.000   0.000   0.000   1.028   0.000  -0.000  -0.000  -0.000  -0.000  -0.000   0.000   0.000   0.000   0.000
 -0.000  -0.613   0.000  -0.000  -0.000   0.000   1.021  -0.000   0.000   0.000  -0.000   0.000   0.000   0.000   0.000   0.000
  0.000   0.000  -1.190  -0.000   0.029  -0.000  -0.000   1.394   0.000  -0.016   0.015  -0.000   0.000   0.000   0.000   0.000
  0.000   0.000  -0.000  -0.634   0.000  -0.000   0.000   0.000   1.028  -0.000  -0.000   0.000   0.000   0.000   0.000   0.000
  0.000  -0.000   0.029   0.000  -1.223  -0.000   0.000  -0.016  -0.000   1.412  -0.025   0.001   0.000   0.000   0.000   0.000
  0.000   0.000  -0.015   0.000   0.026   0.000  -0.000   0.015  -0.000  -0.025   2.233  -0.240   0.000   0.000   0.000   0.000
  0.000   0.000  -0.000  -0.000   0.000  -0.000  -0.000  -0.000   0.000   0.001  -0.240   0.029   0.000   0.000   0.000   0.000
  0.000   0.000   0.000   0.000   0.000   0.000   0.000   0.000   0.000   0.000   0.000   0.000   0.269  -0.000   0.000  -0.023
  0.000   0.000   0.000   0.000   0.000   0.000   0.000   0.000   0.000   0.000   0.000   0.000  -0.000   0.269  -0.000   0.000
  0.000   0.000   0.000   0.000   0.000   0.000   0.000   0.000   0.000   0.000   0.000   0.000   0.000   0.000   0.266  -0.000
  0.000   0.000   0.000   0.000   0.000   0.000   0.000   0.000   0.000   0.000   0.000   0.000  -0.023   0.000  -0.000   0.002
  0.000   0.000   0.000   0.000   0.000   0.000   0.000   0.000   0.000   0.000   0.000   0.000   0.000  -0.023  -0.000  -0.000
  0.000   0.000   0.000   0.000   0.000   0.000   0.000   0.000   0.000   0.000   0.000   0.000  -0.000  -0.000  -0.022   0.000


------------------------ aborting loop because EDIFF is reached ----------------------------------------


    CHARGE:  cpu time      0.0569: real time      0.0573
    FORLOC:  cpu time      0.0008: real time      0.0008
    FORNL :  cpu time      1.1453: real time      1.1528
    STRESS:  cpu time      3.4645: real time      3.4866
    FORCOR:  cpu time      0.0073: real time      0.0075
    FORHAR:  cpu time      0.0023: real time      0.0024
    MIXING:  cpu time      0.0008: real time      0.0008
    OFIELD:  cpu time      0.0001: real time      0.0001

  FORCE on cell =-STRESS in cart. coord.  units (eV):
  Direction    XX          YY          ZZ          XY          YZ          ZX
  --------------------------------------------------------------------------------------
  Alpha Z   452.49678   452.49678   452.49678
  Ewald   -1613.64318 -1613.64318 -1613.64318    -0.00000     0.00000    -0.00000
  Hartree   274.47253   274.47253   274.47253    -0.00000    -0.00000    -0.00000
  E(xc)    -315.94068  -315.94068  -315.94068    -0.00001    -0.00001    -0.00001
  Local     383.36987   383.36987   383.36987    -0.00011    -0.00011    -0.00011
  n-local  -200.19440  -200.52770  -201.78742    -0.40404     1.22021     1.17621
  augment   422.00271   422.00271   422.00271     0.00009     0.00009     0.00009
  Kinetic   582.58059   586.83277   585.07358    -8.97112    11.52771     7.92558
  Fock        0.00000     0.00000     0.00000     0.00000     0.00000     0.00000
  -------------------------------------------------------------------------------------
  Total     -13.24949   -13.24949   -13.24949    -0.00000     0.00000    -0.00000
  in kB    -226.72058  -226.72058  -226.72058    -0.00000     0.00000    -0.00000
  external pressure =     -226.72 kB  Pullay stress =        0.00 kB


 VOLUME and BASIS-vectors are now :
 -----------------------------------------------------------------------------
  energy-cutoff  :      500.00
  volume of cell :       93.63
      direct lattice vectors                 reciprocal lattice vectors
    -2.860572000  2.860572000  2.860572000    -0.000000000  0.174790217  0.174790217
     2.860572000 -2.860572000  2.860572000     0.174790217 -0.000000000  0.174790217
     2.860572000  2.860572000 -2.860572000     0.174790217  0.174790217 -0.000000000

  length of vectors
     4.954656043  4.954656043  4.954656043     0.247190695  0.247190695  0.247190695


 FORCES acting on ions
    electron-ion (+dipol)            ewald-force                    non-local-force                 convergence-correction
 -----------------------------------------------------------------------------------------------
   0.334E-12 -.187E-13 -.219E-13   0.899E-14 -.342E-15 0.670E-14   0.569E-25 0.186E-24 0.150E-24   0.135E-12 -.466E-13 -.135E-12
   -.543E-12 0.352E-13 0.197E-12   0.323E-14 0.531E-14 0.891E-14   0.252E-25 -.388E-24 0.182E-24   0.948E-13 0.523E-13 -.207E-13
   0.752E-12 0.992E-12 -.746E-12   0.553E-14 0.116E-14 0.960E-15   -.247E-25 0.787E-25 0.247E-25   0.337E-13 0.499E-13 -.456E-13
   0.158E-12 0.138E-12 -.208E-12   -.411E-14 -.537E-14 -.216E-14   -.105E-24 -.260E-24 -.205E-24   0.136E-12 -.601E-13 -.155E-12
   0.157E-12 -.198E-12 0.125E-12   -.757E-15 -.671E-14 0.757E-15   0.921E-25 0.157E-24 0.257E-24   0.128E-12 -.357E-13 -.113E-12
   -.939E-12 -.696E-12 0.946E-12   -.670E-14 0.345E-14 -.410E-14   -.109E-24 -.316E-24 0.543E-26   0.951E-13 0.560E-13 -.768E-13
   0.700E-12 0.423E-13 0.174E-12   -.474E-14 0.522E-14 -.307E-14   0.642E-25 -.246E-24 -.168E-24   0.848E-13 0.383E-13 -.315E-13
   -.216E-13 -.514E-13 -.776E-13   -.825E-15 -.309E-14 -.107E-13   0.659E-24 -.168E-24 0.168E-24   0.142E-12 -.567E-13 -.142E-12
 -----------------------------------------------------------------------------------------------
   0.597E-12 0.242E-12 0.388E-12   0.626E-15 -.375E-15 -.272E-14   0.658E-24 -.957E-24 0.414E-24   0.849E-12 -.257E-14 -.719E-12
 
 
 POSITION                                       TOTAL-FORCE (eV/Angst)
 -----------------------------------------------------------------------------------
      2.86057      0.00000      0.00000        -0.000000     -0.000000     -0.000000
      0.00000      0.00000      2.86057        -0.000000      0.000000     -0.000000
      0.00000      2.86057      0.00000         0.000000     -0.000000      0.000000
      1.43029      1.43029     -1.43029        -0.000000     -0.000000     -0.000000
      1.43029     -1.43029      1.43029         0.000000      0.000000      0.000000
     -1.43029      1.43029      1.43029        -0.000000      0.000000     -0.000000
      1.43029      1.43029      1.43029         0.000000     -0.000000      0.000000
      0.00000      0.00000      0.00000         0.000000      0.000000     -0.000000
 -----------------------------------------------------------------------------------
    total drift:                                0.000000      0.000000     -0.000000


--------------------------------------------------------------------------------------------------------



  FREE ENERGIE OF THE ION-ELECTRON SYSTEM (eV)
  ---------------------------------------------------
  free  energy   TOTEN  =       -60.12253539 eV

  energy  without entropy=      -60.12458198  energy(sigma->0) =      -60.12321759
 


--------------------------------------------------------------------------------------------------------


    POTLOK:  cpu time      0.0107: real time      0.0108


--------------------------------------------------------------------------------------------------------


 writing wavefunctions
     LOOP+:  cpu time    101.6507: real time    102.5360
    4ORBIT:  cpu time      0.0000: real time      0.0000

 total amount of memory used by VASP MPI-rank0    49391. kBytes
=======================================================================

   base      :      30000. kBytes
   nonlr-proj:       9839. kBytes
   fftplans  :        737. kBytes
   grid      :       2775. kBytes
   one-center:        124. kBytes
   wavefun   :       5916. kBytes
 
  
  
 General timing and accounting informations for this job:
 ========================================================
  
                  Total CPU time used (sec):      106.067
                            User time (sec):      105.243
                          System time (sec):        0.825
                         Elapsed time (sec):      107.592
  
                   Maximum memory used (kb):      169096.
                   Average memory used (kb):          N/A
  
                          Minor page faults:        26174
                          Major page faults:            0
                 Voluntary context switches:         1880
